Program Version,EnergyPlus, Version 8.6.0-198c6a3cff, YMD=2021.06.29 21:45
1,5,Environment Title[],Latitude[deg],Longitude[deg],Time Zone[],Elevation[m]
2,6,Day of Simulation[],Month[],Day of Month[],DST Indicator[1=yes 0=no],Hour[],StartMinute[],EndMinute[],DayType
3,3,Cumulative Day of Simulation[],Month[],Day of Month[],DST Indicator[1=yes 0=no],DayType  ! When Daily Report Variables Requested
4,2,Cumulative Days of Simulation[],Month[]  ! When Monthly Report Variables Requested
5,1,Cumulative Days of Simulation[] ! When Run Period Report Variables Requested
6,1,Environment,Site Outdoor Air Drybulb Temperature [C] !TimeStep
7,1,Environment,Site Outdoor Air Relative Humidity [%] !TimeStep
8,1,Environment,Site Wind Speed [m/s] !TimeStep
9,1,Environment,Site Wind Direction [deg] !TimeStep
10,1,Environment,Site Diffuse Solar Radiation Rate per Area [W/m2] !TimeStep
11,1,Environment,Site Direct Solar Radiation Rate per Area [W/m2] !TimeStep
12,1,SPACE1-1,Zone People Occupant Count [] !TimeStep
209,1,SPACE1-1,Zone Air Temperature [C] !TimeStep
210,1,SPACE1-1,Zone Air Relative Humidity [%] !TimeStep
211,1,SPACE1-1,Zone Thermostat Heating Setpoint Temperature [C] !TimeStep
212,1,SPACE1-1,Zone Thermostat Cooling Setpoint Temperature [C] !TimeStep
306,1,Whole Building,Facility Total HVAC Electric Demand Power [W] !TimeStep
307,1,SPACE1-1 PEOPLE 1,Zone Thermal Comfort Fanger Model PMV [] !TimeStep
308,1,SPACE1-1 PEOPLE 1,Zone Thermal Comfort Fanger Model PPD [%] !TimeStep
309,1,SPACE1-1 PEOPLE 1,Zone Thermal Comfort Mean Radiant Temperature [C] !TimeStep
310,1,SPACE1-1 PEOPLE 1,Zone Thermal Comfort Clothing Value [clo] !TimeStep
462,1,SPACE1-1 IN NODE,System Node Temperature [C] !TimeStep
463,1,SPACE1-1 IN NODE,System Node Mass Flow Rate [kg/s] !TimeStep
464,1,VAV SYS 1 OUTLET NODE,System Node Temperature [C] !TimeStep
465,1,VAV SYS 1 OUTLET NODE,System Node Mass Flow Rate [kg/s] !TimeStep
End of Data Dictionary
1,Pittsburgh Allegheny Co Ap PA USA TMY3 WMO#=725205,  40.35, -79.92,  -5.00, 380.00
2,1, 1, 1, 0, 1, 0.00,15.00,Monday
6,1.8
7,95.25
8,4.1
9,265.0
10,0.0
11,0.0
12,0.0
211,0.0
212,0.0
307,-1.400056727049901
308,45.514830011685138
309,16.573519774980075
310,0.7499999951999999
209,14.627727660868818
210,60.77116641144659
306,1640.1282538898226
462,12.000054929503142
463,0.8113775429980051
464,12.000054929503142
465,0.8113775429980051
2,1, 1, 1, 0, 1,15.00,30.00,Monday
6,3.6
7,95.5
8,4.1
9,240.0
10,0.0
11,0.0
12,0.0
211,0.0
212,0.0
307,-2.5995276014522075
308,95.28720637412602
309,13.921883037309544
310,0.7499999951999999
209,12.997784448998259
210,65.69331556665809
306,1234.0534917151097
462,12.000291914140324
463,0.8113775429980051
464,12.000291914140324
465,0.8113775429980051
2,1, 1, 1, 0, 1,30.00,45.00,Monday
6,5.4
7,95.75
8,4.1
9,215.0
10,0.0
11,0.0
12,0.0
211,0.0
212,0.0
307,-2.936076881093245
308,98.79832477819544
309,13.018863319632532
310,0.7499999951999999
209,12.489820192730063
210,65.7637267531286
306,603.6115308797785
462,11.999991878207327
463,0.811377542998005
464,11.999991878207327
465,0.811377542998005
2,1, 1, 1, 0, 1,45.00,60.00,Monday
6,7.2
7,96.0
8,4.1
9,190.0
10,0.0
11,0.0
12,0.0
211,0.0
212,0.0
307,-3.057978506808536
308,99.34019172447256
309,12.634350931849643
310,0.7499999951999999
209,12.32754001378069
210,67.25148445439868
306,603.6115308797785
462,11.999990648014123
463,0.8113775429980051
464,11.999990648014123
465,0.8113775429980051
2,1, 1, 1, 0, 2, 0.00,15.00,Monday
6,7.2
7,96.0
8,4.35
9,197.5
10,0.0
11,0.0
12,0.0
211,0.0
212,0.0
307,-3.096521443458353
308,99.46105177055293
309,12.466055089099204
310,0.7499999951999999
209,12.216840720872833
210,68.08000959906751
306,603.6115308797785
462,11.999958784622895
463,0.8113775429980051
464,11.999958784622895
465,0.8113775429980051
2,1, 1, 1, 0, 2,15.00,30.00,Monday
6,7.2
7,96.0
8,4.6
9,205.0
10,0.0
11,0.0
12,0.0
211,0.0
212,0.0
307,-3.119592161091361
308,99.5239761687004
309,12.388865799484103
310,0.7499999951999999
209,12.168529712946203
210,68.17731609488453
306,603.6115308797785
462,11.999993486457229
463,0.8113775429980051
464,11.999993486457229
465,0.8113775429980051
2,1, 1, 1, 0, 2,30.00,45.00,Monday
6,7.2
7,96.0
8,4.85
9,212.5
10,0.0
11,0.0
12,0.0
211,0.0
212,0.0
307,-3.132989023368564
308,99.55755607998111
309,12.333356469933703
310,0.7499999951999999
209,12.149799660926126
210,68.39207199637534
306,603.6115308797785
462,11.999883455456893
463,0.8113775429980051
464,11.999883455456893
465,0.8113775429980051
2,1, 1, 1, 0, 2,45.00,60.00,Monday
6,7.2
7,96.0
8,5.1
9,220.0
10,0.0
11,0.0
12,0.0
211,0.0
212,0.0
307,-3.139363316295643
308,99.5728092482067
309,12.295882758326256
310,0.7499999951999999
209,12.137453802951553
210,68.4960978886613
306,603.6115308797785
462,11.999920793253029
463,0.8113775429980051
464,11.999920793253029
465,0.8113775429980051
2,1, 1, 1, 0, 3, 0.00,15.00,Monday
6,7.2
7,96.0
8,4.975
9,220.0
10,0.0
11,0.0
12,0.0
211,0.0
212,0.0
307,-3.1440778168061049
308,99.58379922455987
309,12.26770526070825
310,0.7499999951999999
209,12.12821174465253
210,68.56810445288238
306,603.6115308797785
462,11.999921781419575
463,0.8113775429980051
464,11.999921781419575
465,0.8113775429980051
2,1, 1, 1, 0, 3,15.00,30.00,Monday
6,7.2
7,96.0
8,4.85
9,220.0
10,0.0
11,0.0
12,0.0
211,0.0
212,0.0
307,-3.147828670863267
308,99.59236909261645
309,12.24479457369171
310,0.7499999951999999
209,12.121316982272058
210,68.6435645281697
306,603.6115308797785
462,11.999936165594761
463,0.8113775429980051
464,11.999936165594761
465,0.8113775429980051
2,1, 1, 1, 0, 3,30.00,45.00,Monday
6,7.2
7,96.0
8,4.725
9,220.0
10,0.0
11,0.0
12,0.0
211,0.0
212,0.0
307,-3.1507257173352505
308,99.59888431091236
309,12.226156914493654
310,0.7499999951999999
209,12.115970444007314
210,68.69800195699504
306,603.6115308797785
462,11.999945987359391
463,0.8113775429980051
464,11.999945987359391
465,0.8113775429980051
2,1, 1, 1, 0, 3,45.00,60.00,Monday
6,7.2
7,96.0
8,4.6
9,220.0
10,0.0
11,0.0
12,0.0
211,0.0
212,0.0
307,-3.153032307069628
308,99.60400762569687
309,12.211286071824527
310,0.7499999951999999
209,12.11178602629154
210,68.74432471086469
306,603.6115308797785
462,11.999951968221739
463,0.8113775429980051
464,11.999951968221739
465,0.8113775429980051
2,1, 1, 1, 0, 4, 0.00,15.00,Monday
6,7.325
7,95.25
8,4.725
9,225.0
10,0.0
11,0.0
12,0.0
211,0.0
212,0.0
307,-3.1543190225515489
308,99.60684117541429
309,12.203665093611983
310,0.7499999951999999
209,12.10946511459218
210,68.8034167500676
306,603.6115308797785
462,11.999953437118118
463,0.8113775429980051
464,11.999953437118118
465,0.8113775429980051
2,1, 1, 1, 0, 4,15.00,30.00,Monday
6,7.45
7,94.5
8,4.85
9,230.0
10,0.0
11,0.0
12,0.0
211,0.0
212,0.0
307,-3.1545390140826656
308,99.60732388653214
309,12.203166342899486
310,0.7499999951999999
209,12.109613585776345
210,68.84940432454464
306,603.6115308797785
462,11.999955369631504
463,0.8113775429980051
464,11.999955369631504
465,0.8113775429980051
2,1, 1, 1, 0, 4,30.00,45.00,Monday
6,7.575
7,93.75
8,4.975
9,235.0
10,0.0
11,0.0
12,0.0
211,0.0
212,0.0
307,-3.1536306850769009
308,99.60532751877669
309,12.209739620021887
310,0.7499999951999999
209,12.11227064338006
210,68.88365966470326
306,603.6115308797785
462,11.999957263220484
463,0.8113775429980051
464,11.999957263220484
465,0.8113775429980051
2,1, 1, 1, 0, 4,45.00,60.00,Monday
6,7.7
7,93.0
8,5.1
9,240.0
10,0.0
11,0.0
12,0.0
211,0.0
212,0.0
307,-3.1517806018693679
308,99.60123438976363
309,12.221609307824786
310,0.7499999951999999
209,12.11691680284492
210,68.90815952447028
306,603.6115308797785
462,11.999959812666557
463,0.8113775429980051
464,11.999959812666557
465,0.8113775429980051
2,1, 1, 1, 0, 5, 0.00,15.00,Monday
6,7.7
7,93.0
8,5.1
9,240.0
10,0.0
11,0.0
12,0.0
211,0.0
212,0.0
307,-3.149826218635061
308,99.59687103462999
309,12.232447940912639
310,0.7499999951999999
209,12.121420154650542
210,68.91127871657152
306,603.6115308797785
462,11.999964268042963
463,0.8113775429980051
464,11.999964268042963
465,0.8113775429980051
2,1, 1, 1, 0, 5,15.00,30.00,Monday
6,7.7
7,93.0
8,5.1
9,240.0
10,0.0
11,0.0
12,0.0
211,0.0
212,0.0
307,-3.148117797188081
308,99.59302336044563
309,12.241386296299487
310,0.7499999951999999
209,12.125038485820001
210,68.91646088096279
306,603.6115308797785
462,11.999967809870697
463,0.8113775429980051
464,11.999967809870697
465,0.8113775429980051
2,1, 1, 1, 0, 5,30.00,45.00,Monday
6,7.7
7,93.0
8,5.1
9,240.0
10,0.0
11,0.0
12,0.0
211,0.0
212,0.0
307,-3.1467856255480366
308,99.59000127704519
309,12.248122649697989
310,0.7499999951999999
209,12.127725339838913
210,68.92371656304941
306,603.6115308797785
462,11.999971129454764
463,0.8113775429980051
464,11.999971129454764
465,0.8113775429980051
2,1, 1, 1, 0, 5,45.00,60.00,Monday
6,7.7
7,93.0
8,5.1
9,240.0
10,0.0
11,0.0
12,0.0
211,0.0
212,0.0
307,-3.1458785369421489
308,99.58793252873942
309,12.252283453698189
310,0.7499999951999999
209,12.129514100679176
210,68.9328497930978
306,603.6115308797785
462,11.999974160279108
463,0.8113775429980051
464,11.999974160279108
465,0.8113775429980051
2,1, 1, 1, 0, 6, 0.00,15.00,Monday
6,7.7
7,93.0
8,5.225
9,240.0
10,0.0
11,0.0
12,0.0
211,0.0
212,0.0
307,-3.145417209788025
308,99.58687697974939
309,12.25364230231544
310,0.7499999951999999
209,12.130021585757892
210,68.94621494639377
306,603.6115308797785
462,11.99997673130121
463,0.8113775429980051
464,11.99997673130121
465,0.8113775429980051
2,1, 1, 1, 0, 6,15.00,30.00,Monday
6,7.7
7,93.0
8,5.35
9,240.0
10,0.0
11,0.0
12,0.0
211,0.0
212,0.0
307,-3.145243487264623
308,99.58647889069793
309,12.254087904664417
310,0.7499999951999999
209,12.1298550640409
210,68.96114122008818
306,603.6115308797785
462,11.99997899641032
463,0.8113775429980051
464,11.99997899641032
465,0.8113775429980051
2,1, 1, 1, 0, 6,30.00,45.00,Monday
6,7.7
7,93.0
8,5.475
9,240.0
10,0.0
11,0.0
12,0.0
211,0.0
212,0.0
307,-3.145294648214418
308,99.58659616126944
309,12.253411912212764
310,0.7499999951999999
209,12.129309303104334
210,68.97642525574816
306,603.6115308797785
462,11.999981009861977
463,0.8113775429980051
464,11.999981009861977
465,0.8113775429980051
2,1, 1, 1, 0, 6,45.00,60.00,Monday
6,7.7
7,93.0
8,5.6
9,240.0
10,0.0
11,0.0
12,0.0
211,0.0
212,0.0
307,-3.145477964952602
308,99.58701612409269
309,12.252069890645079
310,0.7499999951999999
209,12.128495336323154
210,68.99173353655969
306,603.6115308797783
462,11.999982818898824
463,0.8113775429980051
464,11.999982818898824
465,0.811377542998005
2,1, 1, 1, 0, 7, 0.00,15.00,Monday
6,7.7
7,93.0
8,5.725
9,240.0
10,0.0
11,0.0
12,0.0
211,0.0
212,0.0
307,-3.7087633152917975
308,99.99166364575072
309,12.250561624412459
310,0.6104920319896938
209,12.127557620697273
210,69.00651962128221
306,603.6115308797785
462,11.999992638898564
463,0.8113775429980051
464,11.999992638898564
465,0.8113775429980051
2,1, 1, 1, 0, 7,15.00,30.00,Monday
6,7.7
7,93.0
8,5.85
9,240.0
10,0.0
11,0.0
12,0.0
211,0.0
212,0.0
307,-3.709104608021344
308,99.99168767880635
309,12.248665884175
310,0.6104920319896938
209,12.126498919330038
210,69.020880008768
306,603.6115308797785
462,11.999993351594466
463,0.8113775429980051
464,11.999993351594466
465,0.8113775429980051
2,1, 1, 1, 0, 7,30.00,45.00,Monday
6,7.7
7,93.0
8,5.975
9,240.0
10,0.0
11,0.0
12,0.0
211,0.0
212,0.0
307,-3.7094886807566009
308,99.99171464837719
309,12.246599795973422
310,0.6104920319896938
209,12.125356731344555
210,69.03474152240166
306,603.6115308797785
462,11.999993990226523
463,0.8113775429980051
464,11.999993990226523
465,0.8113775429980051
2,1, 1, 1, 0, 7,45.00,60.00,Monday
6,7.7
7,93.0
8,6.1
9,240.0
10,0.0
11,0.0
12,0.0
211,0.0
212,0.0
307,-3.709897679531389
308,99.99174328005162
309,12.244459389982913
310,0.6104920319896938
209,12.124175438943939
210,69.04798859793036
306,603.6115308797785
462,11.999994563163855
463,0.8113775429980051
464,11.999994563163855
465,0.8113775429980051
2,1, 1, 1, 0, 8, 0.00,15.00,Monday
6,7.7
7,93.0
8,6.1
9,242.5
10,0.0
11,0.0
12,0.0
211,0.0
212,0.0
307,-3.710235565700371
308,99.99176686509506
309,12.242485680077064
310,0.6104920319896938
209,12.123392068967969
210,69.0739657243839
306,603.6115308797785
462,11.999996299561689
463,0.8113775429980051
464,11.999996299561689
465,0.8113775429980051
2,1, 1, 1, 0, 8,15.00,30.00,Monday
6,7.7
7,93.0
8,6.1
9,245.0
10,0.0
11,0.0
12,0.0
211,0.0
212,0.0
307,-3.7104458294220628
308,99.9917815106804
309,12.241140494943583
310,0.6104920319896938
209,12.122900365269567
210,69.09686863015812
306,603.6115308797785
462,11.999997568849505
463,0.8113775429980051
464,11.999997568849505
465,0.8113775429980051
2,1, 1, 1, 0, 8,30.00,45.00,Monday
6,7.7
7,93.0
8,6.1
9,247.5
10,0.0
11,0.0
12,0.0
211,0.0
212,0.0
307,-3.7105939238156324
308,99.991791811622
309,12.23998334956315
310,0.6104920319896938
209,12.122505544961904
210,69.11748305785169
306,603.6115308797785
462,11.999998908171309
463,0.8113775429980051
464,11.999998908171309
465,0.8113775429980051
2,1, 1, 1, 0, 8,45.00,60.00,Monday
6,7.7
7,93.0
8,6.1
9,250.0
10,10.5
11,0.0
12,0.0
211,0.0
212,0.0
307,-3.7097724262273368
308,99.9917345214304
309,12.24668552687979
310,0.6104920319896938
209,12.124309645762687
210,69.12634505557011
306,603.6115308797785
462,12.000000046556139
463,0.8113775429980051
464,12.000000046556139
465,0.8113775429980051
2,1, 1, 1, 0, 9, 0.00,15.00,Monday
6,7.7
7,93.0
8,6.374999999999999
9,250.0
10,15.75
11,0.0
12,11.0
211,0.0
212,0.0
307,-3.552737447446696
308,99.97093511970795
309,13.509339862160675
310,0.6104920319896938
209,13.252195455402497
210,64.61363463893999
306,603.6115308797785
462,12.000011177704366
463,0.8113775429980051
464,12.000011177704366
465,0.8113775429980051
2,1, 1, 1, 0, 9,15.00,30.00,Monday
6,7.7
7,93.0
8,6.65
9,250.0
10,21.0
11,0.0
12,11.0
211,0.0
212,0.0
307,-3.276737896046473
308,99.80817477474695
309,14.329085958388508
310,0.6104920319896938
209,13.619785586495084
210,63.372376882797279
306,603.6115308797785
462,12.000052338017039
463,0.8113775429980051
464,12.000052338017039
465,0.811377542998005
2,1, 1, 1, 0, 9,30.00,45.00,Monday
6,7.7
7,93.0
8,6.925000000000001
9,250.0
10,25.25
11,0.0
12,11.0
211,0.0
212,0.0
307,-3.1655754098396788
308,99.63089666701177
309,14.756252620652188
310,0.6104920319896938
209,13.828043533906094
210,62.78052868221404
306,603.6115308797785
462,12.000038867243106
463,0.8113775429980051
464,12.000038867243106
465,0.8113775429980051
2,1, 1, 1, 0, 9,45.00,60.00,Monday
6,7.7
7,93.0
8,7.2
9,250.0
10,29.5
11,0.0
12,11.0
211,0.0
212,0.0
307,-3.100169288342782
308,99.4714475267458
309,15.014016395085515
310,0.6104920319896938
209,13.92248455269319
210,62.57492356573935
306,603.6115308797785
462,11.999987141594147
463,0.8113775429980051
464,11.999987141594147
465,0.8113775429980051
2,1, 1, 1, 0,10, 0.00,15.00,Monday
6,7.7
7,93.0
8,7.050000000000001
9,252.5
10,33.75
11,0.0
12,11.0
211,0.0
212,0.0
307,-3.038601788128703
308,99.27127098492284
309,15.38243537042145
310,0.6104920319896938
209,14.273743720337074
210,61.24001060309877
306,603.6115308797785
462,11.999996899049659
463,0.8113775429980051
464,11.999996899049659
465,0.8113775429980051
2,1, 1, 1, 0,10,15.00,30.00,Monday
6,7.7
7,93.0
8,6.9
9,255.0
10,38.0
11,0.0
12,11.0
211,0.0
212,0.0
307,-2.9437908725288044
308,98.8410162699148
309,15.702717481259598
310,0.6104920319896938
209,14.455256768107678
210,60.62540633513599
306,603.6115308797785
462,11.999999533966348
463,0.8113775429980051
464,11.999999533966348
465,0.8113775429980051
2,1, 1, 1, 0,10,30.00,45.00,Monday
6,7.7
7,93.0
8,6.749999999999999
9,257.5
10,43.5
11,0.0
12,11.0
211,0.0
212,0.0
307,-2.891282590121937
308,98.5241823631453
309,15.893706966688875
310,0.6104920319896938
209,14.514190545005638
210,60.45908559084777
306,603.6115308797785
462,11.999998793483697
463,0.8113775429980051
464,11.999998793483697
465,0.8113775429980051
2,1, 1, 1, 0,10,45.00,60.00,Monday
6,7.7
7,93.0
8,6.6
9,260.0
10,49.0
11,0.0
12,11.0
211,0.0
212,0.0
307,-2.8651490596336326
308,98.34207629178342
309,16.026365637183177
310,0.6104920319896938
209,14.55460093976041
210,60.33161385397514
306,603.6115308797785
462,11.999999288233252
463,0.8113775429980051
464,11.999999288233252
465,0.8113775429980051
2,1, 1, 1, 0,11, 0.00,15.00,Monday
6,7.7
7,93.0
8,6.475
9,260.0
10,54.5
11,0.0
12,11.0
211,0.0
212,0.0
307,-2.8390545295850737
308,98.14256133422322
309,16.182542355211046
310,0.6104920319896938
209,14.608775353251007
210,60.13569691358995
306,603.6115308797785
462,11.999997823596816
463,0.8113775429980051
464,11.999997823596816
465,0.8113775429980051
2,1, 1, 1, 0,11,15.00,30.00,Monday
6,7.7
7,93.0
8,6.35
9,260.0
10,60.0
11,0.0
12,11.0
211,0.0
212,0.0
307,-2.816969663097182
308,97.95905822622278
309,16.290278032925256
310,0.6104920319896938
209,14.652258822692787
210,59.97802426332369
306,603.6115308797785
462,12.000000033961939
463,0.8113775429980051
464,12.000000033961939
465,0.8113775429980051
2,1, 1, 1, 0,11,30.00,45.00,Monday
6,7.7
7,93.0
8,6.225
9,260.0
10,63.75
11,0.0
12,11.0
211,0.0
212,0.0
307,-2.798914033691985
308,97.79854247804056
309,16.379292213840939
310,0.6104920319896938
209,14.684237666611047
210,59.86006113596897
306,603.6115308797785
462,12.00000019679703
463,0.8113775429980051
464,12.00000019679703
465,0.8113775429980051
2,1, 1, 1, 0,11,45.00,60.00,Monday
6,7.7
7,93.0
8,6.1
9,260.0
10,67.5
11,0.0
12,11.0
211,0.0
212,0.0
307,-2.784571642328623
308,97.6640377661661
309,16.453138014544114
310,0.6104920319896938
209,14.710541419726282
210,59.76182339725612
306,603.6115308797785
462,12.00000018134954
463,0.8113775429980051
464,12.00000018134954
465,0.8113775429980051
2,1, 1, 1, 0,12, 0.00,15.00,Monday
6,7.7
7,93.0
8,6.1
9,257.5
10,71.25
11,0.0
12,8.8
211,0.0
212,0.0
307,-2.785574369625836
308,97.67364751211366
309,16.41334674001125
310,0.6104920319896938
209,14.606378240214158
210,60.06431117011844
306,603.6115308797785
462,12.000000382139616
463,0.8113775429980051
464,12.000000382139616
465,0.8113775429980051
2,1, 1, 1, 0,12,15.00,30.00,Monday
6,7.7
7,93.0
8,6.1
9,255.0
10,75.0
11,0.0
12,8.8
211,0.0
212,0.0
307,-2.8040943926204515
308,97.84558690181636
309,16.396926265311497
310,0.6104920319896938
209,14.565855808109783
210,60.16724599281025
306,603.6115308797785
462,12.000000234856364
463,0.8113775429980051
464,12.000000234856364
465,0.8113775429980051
2,1, 1, 1, 0,12,30.00,45.00,Monday
6,7.7
7,93.0
8,6.1
9,252.5
10,80.25
11,0.0
12,8.8
211,0.0
212,0.0
307,-2.8107450468446375
308,97.90480952250488
309,16.395365249251865
310,0.6104920319896938
209,14.570335252536692
210,60.11509844832298
306,603.6115308797785
462,12.000006075746346
463,0.8113775429980051
464,12.000006075746346
465,0.8113775429980051
2,1, 1, 1, 0,12,45.00,60.00,Monday
6,7.7
7,93.0
8,6.1
9,250.0
10,85.5
11,0.0
12,8.8
211,0.0
212,0.0
307,-2.808047479161382
308,97.88094632744375
309,16.41221961896447
310,0.6104920319896938
209,14.579376647567012
210,60.051187443315459
306,603.6115308797785
462,12.000004196577685
463,0.8113775429980051
464,12.000004196577685
465,0.8113775429980051
2,1, 1, 1, 0,13, 0.00,15.00,Monday
6,7.8500000000000009
7,91.25
8,5.975
9,252.5
10,90.75
11,0.0
12,4.4
211,0.0
212,0.0
307,-2.8348742712106604
308,98.10888203847645
309,16.191127436687766
310,0.6104920319896938
209,14.323349592543858
210,60.623466874221289
306,603.6115308797785
462,12.000042805745954
463,0.8113775429980051
464,12.000042805745954
465,0.8113775429980051
2,1, 1, 1, 0,13,15.00,30.00,Monday
6,8.0
7,89.5
8,5.85
9,255.0
10,96.0
11,0.0
12,4.4
211,0.0
212,0.0
307,-2.889978758473972
308,98.51549950373834
309,16.080662631299885
310,0.6104920319896938
209,14.210339714642745
210,60.63909678770565
306,603.6115308797785
462,12.000044622676534
463,0.8113775429980051
464,12.000044622676534
465,0.8113775429980051
2,1, 1, 1, 0,13,30.00,45.00,Monday
6,8.15
7,87.75
8,5.725
9,257.5
10,93.75
11,0.0
12,4.4
211,0.0
212,0.0
307,-2.9166758478998258
308,98.68522052225905
309,16.02039245868041
310,0.6104920319896938
209,14.200186781080048
210,60.22399075105373
306,603.6115308797785
462,12.00006873206732
463,0.8113775429980051
464,12.00006873206732
465,0.8113775429980051
2,1, 1, 1, 0,13,45.00,60.00,Monday
6,8.3
7,86.0
8,5.6
9,260.0
10,91.5
11,0.0
12,4.4
211,0.0
212,0.0
307,-2.9215893663043328
308,98.714657037416
309,16.007754085205897
310,0.6104920319896938
209,14.204062218617168
210,59.696440268852828
306,603.6115308797785
462,12.000074408544702
463,0.8113775429980051
464,12.000074408544702
465,0.8113775429980051
2,1, 1, 1, 0,14, 0.00,15.00,Monday
6,8.15
7,86.0
8,5.85
9,260.0
10,89.25
11,0.0
12,8.8
211,0.0
212,0.0
307,-2.896636511633607
308,98.55940517824814
309,16.20538345797546
310,0.6104920319896938
209,14.454813997349774
210,58.428550430434018
306,603.6115308797785
462,12.000068636985072
463,0.8113775429980051
464,12.000068636985072
465,0.8113775429980051
2,1, 1, 1, 0,14,15.00,30.00,Monday
6,8.0
7,86.0
8,6.1
9,260.0
10,87.0
11,0.0
12,8.8
211,0.0
212,0.0
307,-2.845072086951454
308,98.19019725278119
309,16.326563280557488
310,0.6104920319896938
209,14.56547111799535
210,57.613378172678469
306,603.6115308797785
462,12.000073641274217
463,0.8113775429980051
464,12.000073641274217
465,0.8113775429980051
2,1, 1, 1, 0,14,30.00,45.00,Monday
6,7.8500000000000009
7,86.0
8,6.35
9,260.0
10,85.0
11,0.0
12,8.8
211,0.0
212,0.0
307,-2.820775198979153
308,97.99166899651348
309,16.395985776674647
310,0.6104920319896938
209,14.577794738104533
210,57.1116564077769
306,603.6115308797785
462,12.000065334770485
463,0.8113775429980051
464,12.000065334770485
465,0.8113775429980051
2,1, 1, 1, 0,14,45.00,60.00,Monday
6,7.7
7,86.0
8,6.6
9,260.0
10,83.0
11,0.0
12,8.8
211,0.0
212,0.0
307,-2.8190175557419585
308,97.97665926182876
309,16.408991509242644
310,0.6104920319896938
209,14.574492659424408
210,56.65993433438018
306,603.6115308797785
462,12.000066538810293
463,0.8113775429980051
464,12.000066538810293
465,0.8113775429980051
2,1, 1, 1, 0,15, 0.00,15.00,Monday
6,7.575
7,86.0
8,6.749999999999999
9,262.5
10,81.0
11,0.0
12,11.0
211,0.0
212,0.0
307,-2.806586548325187
308,97.86793277376921
309,16.52450322845029
310,0.6104920319896938
209,14.65885996125248
210,56.01872774214204
306,603.6115308797785
462,12.00006452519331
463,0.8113775429980051
464,12.00006452519331
465,0.8113775429980051
2,1, 1, 1, 0,15,15.00,30.00,Monday
6,7.45
7,86.0
8,6.9
9,265.0
10,79.0
11,0.0
12,11.0
211,0.0
212,0.0
307,-2.7901362210856615
308,97.71697306955613
309,16.562047242147349
310,0.6104920319896938
209,14.695305074849184
210,55.508282713400429
306,603.6115308797785
462,12.000065477168017
463,0.8113775429980051
464,12.000065477168017
465,0.8113775429980051
2,1, 1, 1, 0,15,30.00,45.00,Monday
6,7.325
7,86.0
8,7.050000000000001
9,267.5
10,71.75
11,0.0
12,11.0
211,0.0
212,0.0
307,-2.7853953968121285
308,97.67193459931025
309,16.567024046950459
310,0.6104920319896938
209,14.692897153730267
210,55.122732142552468
306,603.6115308797785
462,12.00005826545841
463,0.8113775429980051
464,12.00005826545841
465,0.8113775429980051
2,1, 1, 1, 0,15,45.00,60.00,Monday
6,7.2
7,86.0
8,7.2
9,270.0
10,64.5
11,0.0
12,11.0
211,0.0
212,0.0
307,-2.790483333553487
308,97.72024342166022
309,16.542274146610887
310,0.6104920319896938
209,14.68066633828591
210,54.77183358695989
306,603.6115308797785
462,12.000059378304903
463,0.8113775429980051
464,12.000059378304903
465,0.8113775429980051
2,1, 1, 1, 0,16, 0.00,15.00,Monday
6,7.050000000000001
7,85.0
8,7.325
9,270.0
10,57.25
11,0.0
12,11.0
211,0.0
212,0.0
307,-2.8030688677391124
308,97.83633772497527
309,16.470951537445527
310,0.6104920319896938
209,14.611276074724313
210,54.371298992561829
306,603.6115308797785
462,12.00010619026653
463,0.8113775429980051
464,12.00010619026653
465,0.8113775429980051
2,1, 1, 1, 0,16,15.00,30.00,Monday
6,6.9
7,84.0
8,7.45
9,270.0
10,50.0
11,0.0
12,11.0
211,0.0
212,0.0
307,-2.8270656562308544
308,98.04466123401619
309,16.3863632866653
310,0.6104920319896938
209,14.565958716378486
210,53.78656975416569
306,603.6115308797785
462,12.000103049542407
463,0.8113775429980051
464,12.000103049542407
465,0.8113775429980051
2,1, 1, 1, 0,16,30.00,45.00,Monday
6,6.749999999999999
7,83.0
8,7.575
9,270.0
10,42.0
11,0.0
12,11.0
211,0.0
212,0.0
307,-2.848261072480033
308,98.21504119280208
309,16.297561736556117
310,0.6104920319896938
209,14.5358195380266
210,53.097024727509928
306,603.6115308797785
462,12.000115503751074
463,0.8113775429980051
464,12.000115503751074
465,0.8113775429980051
2,1, 1, 1, 0,16,45.00,60.00,Monday
6,6.6
7,82.0
8,7.7
9,270.0
10,34.0
11,0.0
12,11.0
211,0.0
212,0.0
307,-2.867274988094885
308,98.35753728173538
309,16.208975167666098
310,0.6104920319896938
209,14.504584618115818
210,52.36185363861281
306,603.6115308797785
462,12.000122786833244
463,0.8113775429980051
464,12.000122786833244
465,0.8113775429980051
2,1, 1, 1, 0,17, 0.00,15.00,Monday
6,6.324999999999999
7,83.0
8,7.575
9,272.5
10,26.0
11,0.0
12,11.0
211,0.0
212,0.0
307,-2.893916849161737
308,98.54159929447185
309,16.062951266892307
310,0.6104920319896938
209,14.36483490008356
210,52.22756054662605
306,603.6115308797785
462,12.000073386981743
463,0.8113775429980051
464,12.000073386981743
465,0.8113775429980051
2,1, 1, 1, 0,17,15.00,30.00,Monday
6,6.05
7,84.0
8,7.45
9,275.0
10,18.0
11,0.0
12,11.0
211,0.0
212,0.0
307,-2.936917537775416
308,98.80303902313443
309,15.912118592084357
310,0.6104920319896938
209,14.281375680603338
210,51.96988305192776
306,603.6115308797785
462,12.000079932886074
463,0.8113775429980051
464,12.000079932886074
465,0.8113775429980051
2,1, 1, 1, 0,17,30.00,45.00,Monday
6,5.775
7,85.0
8,7.325
9,277.5
10,13.5
11,0.0
12,11.0
211,0.0
212,0.0
307,-2.96966576861995
308,98.97519943192298
309,15.771407220281543
310,0.6104920319896938
209,14.235811146409855
210,51.65585497212803
306,603.6115308797785
462,12.000061485696094
463,0.8113775429980051
464,12.000061485696094
465,0.8113775429980051
2,1, 1, 1, 0,17,45.00,60.00,Monday
6,5.5
7,86.0
8,7.2
9,280.0
10,0.0
11,0.0
12,11.0
211,0.0
212,0.0
307,-2.995191091521605
308,99.09470877886095
309,15.639221073834417
310,0.6104920319896938
209,14.19172362939485
210,51.39693121094646
306,603.6115308797785
462,12.00005568623223
463,0.8113775429980051
464,12.00005568623223
465,0.8113775429980051
2,1, 1, 1, 0,18, 0.00,15.00,Monday
6,5.225
7,86.75
8,7.050000000000001
9,280.0
10,0.0
11,0.0
12,11.0
211,0.0
212,0.0
307,-3.019110226356373
308,99.19594223392079
309,15.515503481171616
310,0.6104920319896938
209,14.1464019535015
210,51.144290657367637
306,603.6115308797785
462,12.000060218880235
463,0.8113775429980051
464,12.000060218880235
465,0.8113775429980051
2,1, 1, 1, 0,18,15.00,30.00,Monday
6,4.95
7,87.5
8,6.9
9,280.0
10,0.0
11,0.0
12,11.0
211,0.0
212,0.0
307,-3.042092725657537
308,99.28411607403696
309,15.400863408098744
310,0.6104920319896938
209,14.104410593448526
210,50.89114012640385
306,603.6115308797783
462,12.00005499421985
463,0.8113775429980051
464,12.00005499421985
465,0.811377542998005
2,1, 1, 1, 0,18,30.00,45.00,Monday
6,4.675000000000001
7,88.25
8,6.749999999999999
9,280.0
10,0.0
11,0.0
12,11.0
211,0.0
212,0.0
307,-3.063233213359791
308,99.3579056564639
309,15.296282196416355
310,0.6104920319896938
209,14.06668078887303
210,50.632214451094359
306,603.6115308797785
462,12.000055238244562
463,0.8113775429980051
464,12.000055238244562
465,0.8113775429980051
2,1, 1, 1, 0,18,45.00,60.00,Monday
6,4.4
7,89.0
8,6.6
9,280.0
10,0.0
11,0.0
12,11.0
211,0.0
212,0.0
307,-3.082571886486824
308,99.41968195820599
309,15.20040356563146
310,0.6104920319896938
209,14.032257048552096
210,50.36599961916263
306,603.6115308797785
462,12.000054591867844
463,0.8113775429980051
464,12.000054591867844
465,0.8113775429980051
2,1, 1, 1, 0,19, 0.00,15.00,Monday
6,4.25
7,88.25
8,6.475
9,285.0
10,0.0
11,0.0
12,5.5
211,0.0
212,0.0
307,-3.173019549040767
308,99.64610093574437
309,14.533122766749106
310,0.6104920319896938
209,13.471068141628504
210,51.47176627549122
306,603.6115308797783
462,12.000013675177785
463,0.8113775429980051
464,12.000013675177785
465,0.811377542998005
2,1, 1, 1, 0,19,15.00,30.00,Monday
6,4.1
7,87.5
8,6.35
9,290.0
10,0.0
11,0.0
12,5.5
211,0.0
212,0.0
307,-3.3198212651698659
308,99.85345734222457
309,14.072051572216557
310,0.6104920319896938
209,13.222236689060026
210,51.491579799363467
306,603.6115308797785
462,12.000010217267655
463,0.8113775429980051
464,12.000010217267655
465,0.8113775429980051
2,1, 1, 1, 0,19,30.00,45.00,Monday
6,3.9499999999999999
7,86.75
8,6.225
9,295.0
10,0.0
11,0.0
12,5.5
211,0.0
212,0.0
307,-3.3933241022728017
308,99.90935563007257
309,13.813215282681784
310,0.6104920319896938
209,13.130624690256749
210,52.03531634857236
306,1035.1310546372677
462,11.999901578922322
463,0.8113775429980051
464,11.999901578922322
465,0.8113775429980051
2,1, 1, 1, 0,19,45.00,60.00,Monday
6,3.8
7,86.0
8,6.1
9,300.0
10,0.0
11,0.0
12,5.5
211,0.0
212,0.0
307,-3.4283068668933955
308,99.92856671348318
309,13.638286581810937
310,0.6104920319896938
209,13.071584134763985
210,52.218644344697029
306,1017.423727892985
462,12.000048132216545
463,0.8113775429980051
464,12.000048132216545
465,0.8113775429980051
2,1, 1, 1, 0,20, 0.00,15.00,Monday
6,3.5249999999999996
7,86.75
8,5.975
9,300.0
10,0.0
11,0.0
12,1.1
211,0.0
212,0.0
307,-3.5175525482640599
308,99.96220315610703
309,12.98955908997728
310,0.6104920319896938
209,12.655411069459426
210,53.6427944298113
306,984.6204914439198
462,11.999998199374359
463,0.8113775429980051
464,11.999998199374359
465,0.8113775429980051
2,1, 1, 1, 0,20,15.00,30.00,Monday
6,3.25
7,87.5
8,5.85
9,300.0
10,0.0
11,0.0
12,1.1
211,0.0
212,0.0
307,-3.6333048450537426
308,99.98448064986852
309,12.570771185038908
310,0.6104920319896938
209,12.442333864333837
210,54.39580570933294
306,921.1385732108143
462,12.000015174763885
463,0.8113775429980051
464,12.000015174763885
465,0.8113775429980051
2,1, 1, 1, 0,20,30.00,45.00,Monday
6,2.9750000000000007
7,88.25
8,5.725
9,300.0
10,0.0
11,0.0
12,1.1
211,0.0
212,0.0
307,-3.69782843608622
308,99.99085909330528
309,12.312565587424972
310,0.6104920319896938
209,12.347355794354288
210,54.68123753398958
306,872.9345595342019
462,12.000050410343743
463,0.8113775429980051
464,12.000050410343743
465,0.8113775429980051
2,1, 1, 1, 0,20,45.00,60.00,Monday