Program Version,EnergyPlus, Version 8.6.0-198c6a3cff, YMD=2021.07.03 19:57
1,5,Environment Title[],Latitude[deg],Longitude[deg],Time Zone[],Elevation[m]
2,6,Day of Simulation[],Month[],Day of Month[],DST Indicator[1=yes 0=no],Hour[],StartMinute[],EndMinute[],DayType
3,3,Cumulative Day of Simulation[],Month[],Day of Month[],DST Indicator[1=yes 0=no],DayType  ! When Daily Report Variables Requested
4,2,Cumulative Days of Simulation[],Month[]  ! When Monthly Report Variables Requested
5,1,Cumulative Days of Simulation[] ! When Run Period Report Variables Requested
6,1,Environment,Site Outdoor Air Drybulb Temperature [C] !TimeStep
7,1,Environment,Site Outdoor Air Relative Humidity [%] !TimeStep
8,1,Environment,Site Wind Speed [m/s] !TimeStep
9,1,Environment,Site Wind Direction [deg] !TimeStep
10,1,Environment,Site Diffuse Solar Radiation Rate per Area [W/m2] !TimeStep
11,1,Environment,Site Direct Solar Radiation Rate per Area [W/m2] !TimeStep
12,1,SPACE1-1,Zone People Occupant Count [] !TimeStep
209,1,SPACE1-1,Zone Air Temperature [C] !TimeStep
210,1,SPACE1-1,Zone Air Relative Humidity [%] !TimeStep
211,1,SPACE1-1,Zone Thermostat Heating Setpoint Temperature [C] !TimeStep
212,1,SPACE1-1,Zone Thermostat Cooling Setpoint Temperature [C] !TimeStep
306,1,Whole Building,Facility Total HVAC Electric Demand Power [W] !TimeStep
307,1,SPACE1-1 PEOPLE 1,Zone Thermal Comfort Fanger Model PMV [] !TimeStep
308,1,SPACE1-1 PEOPLE 1,Zone Thermal Comfort Fanger Model PPD [%] !TimeStep
309,1,SPACE1-1 PEOPLE 1,Zone Thermal Comfort Mean Radiant Temperature [C] !TimeStep
310,1,SPACE1-1 PEOPLE 1,Zone Thermal Comfort Clothing Value [clo] !TimeStep
462,1,SPACE1-1 IN NODE,System Node Temperature [C] !TimeStep
463,1,SPACE1-1 IN NODE,System Node Mass Flow Rate [kg/s] !TimeStep
464,1,VAV SYS 1 OUTLET NODE,System Node Temperature [C] !TimeStep
465,1,VAV SYS 1 OUTLET NODE,System Node Mass Flow Rate [kg/s] !TimeStep
End of Data Dictionary
1,Pittsburgh Allegheny Co Ap PA USA TMY3 WMO#=725205,  40.35, -79.92,  -5.00, 380.00
2,1, 1, 1, 0, 1, 0.00,15.00,Monday
6,1.8
7,95.25
8,4.1
9,265.0
10,0.0
11,0.0
12,0.0
211,0.0
212,0.0
307,-1.400056727049901
308,45.514830011685138
309,16.573519774980075
310,0.7499999951999999
209,14.627727660868818
210,60.77116641144659
306,1640.1282538898226
462,12.000054929503142
463,0.8113775429980051
464,12.000054929503142
465,0.8113775429980051
2,1, 1, 1, 0, 1,15.00,30.00,Monday
6,3.6
7,95.5
8,4.1
9,240.0
10,0.0
11,0.0
12,0.0
211,0.0
212,0.0
307,-2.5995276014522075
308,95.28720637412602
309,13.921883037309544
310,0.7499999951999999
209,12.997784448998259
210,65.69331556665809
306,1234.0534917151097
462,12.000291914140324
463,0.8113775429980051
464,12.000291914140324
465,0.8113775429980051
2,1, 1, 1, 0, 1,30.00,45.00,Monday
6,5.4
7,95.75
8,4.1
9,215.0
10,0.0
11,0.0
12,0.0
211,0.0
212,0.0
307,-2.936076881093245
308,98.79832477819544
309,13.018863319632532
310,0.7499999951999999
209,12.489820192730063
210,65.7637267531286
306,603.6115308797785
462,11.999991878207327
463,0.811377542998005
464,11.999991878207327
465,0.811377542998005
2,1, 1, 1, 0, 1,45.00,60.00,Monday
6,7.2
7,96.0
8,4.1
9,190.0
10,0.0
11,0.0
12,0.0
211,0.0
212,0.0
307,-3.057978506808536
308,99.34019172447256
309,12.634350931849643
310,0.7499999951999999
209,12.32754001378069
210,67.25148445439868
306,603.6115308797785
462,11.999990648014123
463,0.8113775429980051
464,11.999990648014123
465,0.8113775429980051
2,1, 1, 1, 0, 2, 0.00,15.00,Monday
6,7.2
7,96.0
8,4.35
9,197.5
10,0.0
11,0.0
12,0.0
211,0.0
212,0.0
307,-3.096521443458353
308,99.46105177055293
309,12.466055089099204
310,0.7499999951999999
209,12.216840720872833
210,68.08000959906751
306,603.6115308797785
462,11.999958784622895
463,0.8113775429980051
464,11.999958784622895
465,0.8113775429980051
2,1, 1, 1, 0, 2,15.00,30.00,Monday
6,7.2
7,96.0
8,4.6
9,205.0
10,0.0
11,0.0
12,0.0
211,30.0
212,30.0
307,-3.119592161091361
308,99.5239761687004
309,12.388865799484103
310,0.7499999951999999
209,19.51463430986563
210,43.235355466019949
306,7279.735627523075
462,28.40612151575901
463,0.637301066389236
464,17.021598523968338
465,0.6373010663892372
2,1, 1, 1, 0, 2,30.00,45.00,Monday
6,7.2
7,96.0
8,4.85
9,212.5
10,0.0
11,0.0
12,0.0
211,0.0
212,0.0
307,-1.67638745202701
308,60.48382989329882
309,16.091255824087093
310,0.7499999951999999
209,14.266737996825315
210,59.94289386267389
306,603.6115308797782
462,11.999963960132062
463,0.8113775429980046
464,11.999963960132062
465,0.8113775429980046
2,1, 1, 1, 0, 2,45.00,60.00,Monday
6,7.2
7,96.0
8,5.1
9,220.0
10,0.0
11,0.0
12,0.0
211,0.0
212,0.0
307,-2.672027920131158
308,96.37116819796067
309,13.799647199565115
310,0.7499999951999999
209,12.922665042521292
210,65.30880414293608
306,603.6115308797785
462,11.99995472060201
463,0.8113775429980051
464,11.99995472060201
465,0.8113775429980051
2,1, 1, 1, 0, 3, 0.00,15.00,Monday
6,7.2
7,96.0
8,4.975
9,220.0
10,0.0
11,0.0
12,0.0
211,0.0
212,0.0
307,-2.9334350660630954
308,98.78341062161772
309,13.155230117894505
310,0.7499999951999999
209,12.642251920495842
210,66.51847576843506
306,603.6115308797785
462,11.999958197352136
463,0.8113775429980051
464,11.999958197352136
465,0.8113775429980051
2,1, 1, 1, 0, 3,15.00,30.00,Monday
6,7.2
7,96.0
8,4.85
9,220.0
10,0.0
11,0.0
12,0.0
211,0.0
212,0.0
307,-3.00700178347242
308,99.14594694755688
309,12.850596949603267
310,0.7499999951999999
209,12.335372305100176
210,67.8999949188868
306,603.6115308797785
462,11.999967157962015
463,0.8113775429980051
464,11.999967157962015
465,0.8113775429980051
2,1, 1, 1, 0, 3,30.00,45.00,Monday
6,7.2
7,96.0
8,4.725
9,220.0
10,0.0
11,0.0
12,0.0
211,0.0
212,0.0
307,-3.073188440390778
308,99.39036639500647
309,12.644428695767568
310,0.7499999951999999
209,12.248091651265174
210,68.3126579463499
306,603.6115308797785
462,11.999977251061767
463,0.8113775429980051
464,11.999977251061767
465,0.8113775429980051
2,1, 1, 1, 0, 3,45.00,60.00,Monday
6,7.2
7,96.0
8,4.6
9,220.0
10,0.0
11,0.0
12,0.0
211,0.0
212,0.0
307,-3.101027227564243
308,99.47386761439671
309,12.504585719104519
310,0.7499999951999999
209,12.220138735704936
210,68.44593243256768
306,603.6115308797785
462,11.999981527884487
463,0.8113775429980051
464,11.999981527884487
465,0.8113775429980051
2,1, 1, 1, 0, 4, 0.00,15.00,Monday
6,7.325
7,95.25
8,4.725
9,225.0
10,0.0
11,0.0
12,0.0
211,0.0
212,0.0
307,-3.114363136702585
308,99.51029213911225
309,12.419558001490632
310,0.7499999951999999
209,12.190757908427099
210,68.61088121204267
306,603.6115308797785
462,11.999979071446616
463,0.8113775429980051
464,11.999979071446616
465,0.8113775429980051
2,1, 1, 1, 0, 4,15.00,30.00,Monday
6,7.45
7,94.5
8,4.85
9,230.0
10,0.0
11,0.0
12,0.0
211,0.0
212,0.0
307,-3.1245494017041097
308,99.53664661088999
309,12.364331741621438
310,0.7499999951999999
209,12.167579861873469
210,68.74807547140182
306,603.6115308797785
462,11.999978365280989
463,0.8113775429980051
464,11.999978365280989
465,0.8113775429980051
2,1, 1, 1, 0, 4,30.00,45.00,Monday
6,7.575
7,93.75
8,4.975
9,235.0
10,0.0
11,0.0
12,0.0
211,0.0
212,0.0
307,-3.1315322645782235
308,99.55400557527291
309,12.329997560593999
310,0.7499999951999999
209,12.154704677553886
210,68.83878192394835
306,603.6115308797785
462,11.999977839310056
463,0.8113775429980051
464,11.999977839310056
465,0.8113775429980051
2,1, 1, 1, 0, 4,45.00,60.00,Monday
6,7.7
7,93.0
8,5.1
9,240.0
10,0.0
11,0.0
12,0.0
211,0.0
212,0.0
307,-3.1351247969895668
308,99.56271784580963
309,12.313059338441457
310,0.7499999951999999
209,12.149040688207906
210,68.89720569477987
306,603.6115308797785
462,11.999978514937237
463,0.8113775429980051
464,11.999978514937237
465,0.8113775429980051
2,1, 1, 1, 0, 5, 0.00,15.00,Monday
6,7.7
7,93.0
8,5.1
9,240.0
10,0.0
11,0.0
12,0.0
211,0.0
212,0.0
307,-3.1369864904493509
308,99.5671751337891
309,12.303056113006076
310,0.7499999951999999
209,12.146090585041192
210,68.92242433111223
306,603.6115308797785
462,11.999981560346859
463,0.8113775429980051
464,11.999981560346859
465,0.8113775429980051
2,1, 1, 1, 0, 5,15.00,30.00,Monday
6,7.7
7,93.0
8,5.1
9,240.0
10,0.0
11,0.0
12,0.0
211,0.0
212,0.0
307,-3.13807778088949
308,99.56976980865059
309,12.296632572978059
310,0.7499999951999999
209,12.144160167544503
210,68.94192133762238
306,603.6115308797785
462,11.999983760347327
463,0.8113775429980051
464,11.999983760347327
465,0.8113775429980051
2,1, 1, 1, 0, 5,30.00,45.00,Monday
6,7.7
7,93.0
8,5.1
9,240.0
10,0.0
11,0.0
12,0.0
211,30.0
212,30.0
307,-3.1388586745552637
308,99.57161830201733
309,12.291738748524978
310,0.7499999951999999
209,19.201320999379559
210,44.476161339629097
306,7422.9710141132255
462,26.797356773424978
463,0.7196775979577135
464,16.833860296021944
465,0.7196775979577135
2,1, 1, 1, 0, 5,45.00,60.00,Monday
6,7.7
7,93.0
8,5.1
9,240.0
10,0.0
11,0.0
12,0.0
211,0.0
212,0.0
307,-1.7395461693468273
308,63.85714210464147
309,15.905412098418138
310,0.7499999951999999
209,14.159167160642085
210,60.67777204151038
306,603.6115308797782
462,11.99998178255835
463,0.8113775429980046
464,11.99998178255835
465,0.8113775429980046
2,1, 1, 1, 0, 6, 0.00,15.00,Monday
6,7.7
7,93.0
8,5.225
9,240.0
10,0.0
11,0.0
12,0.0
211,0.0
212,0.0
307,-2.694486097353846
308,96.66505190012669
309,13.723311654720133
310,0.7499999951999999
209,12.895963692944532
210,65.71094447653999
306,603.6115308797785
462,11.999991123096783
463,0.8113775429980051
464,11.999991123096783
465,0.8113775429980051
2,1, 1, 1, 0, 6,15.00,30.00,Monday
6,7.7
7,93.0
8,5.35
9,240.0
10,0.0
11,0.0
12,0.0
211,0.0
212,0.0
307,-2.9382722645848928
308,98.8106041016525
309,13.136518862916807
310,0.7499999951999999
209,12.632583112575816
210,66.83730111507819
306,603.6115308797785
462,11.999993736934965
463,0.8113775429980052
464,11.999993736934965
465,0.8113775429980052
2,1, 1, 1, 0, 6,30.00,45.00,Monday
6,7.7
7,93.0
8,5.475
9,240.0
10,0.0
11,0.0
12,0.0
211,0.0
212,0.0
307,-3.0061589590970207
308,99.14237251634838
309,12.861710847789576
310,0.7499999951999999
209,12.342952557457572
210,68.12137286631246
306,603.6115308797785
462,11.999995072141225
463,0.8113775429980051
464,11.999995072141225
465,0.811377542998005
2,1, 1, 1, 0, 6,45.00,60.00,Monday
6,7.7
7,93.0
8,5.6
9,240.0
10,0.0
11,0.0
12,0.0
211,0.0
212,0.0
307,-3.0677813922898715
308,99.3729122903007
309,12.67549639250723
310,0.7499999951999999
209,12.262152805040344
210,68.48811767051667
306,603.6115308797785
462,11.99999656243648
463,0.8113775429980051
464,11.99999656243648
465,0.8113775429980051
2,1, 1, 1, 0, 7, 0.00,15.00,Monday
6,7.7
7,93.0
8,5.725
9,240.0
10,0.0
11,0.0
12,0.0
211,0.0
212,0.0
307,-3.65103552096228
308,99.98654905683235
309,12.550679952653548
310,0.6104920319896938
209,12.237234974039973
210,68.60184382124698
306,603.6115308797785
462,11.99999833112865
463,0.8113775429980051
464,11.99999833112865
465,0.8113775429980051
2,1, 1, 1, 0, 7,15.00,30.00,Monday
6,7.7
7,93.0
8,5.85
9,240.0
10,0.0
11,0.0
12,0.0
211,0.0
212,0.0
307,-3.6646145284300588
308,99.98795955292788
309,12.471250698119404
310,0.6104920319896938
209,12.209231773040483
210,68.7299764285426
306,603.6115308797785
462,11.999998605837299
463,0.8113775429980051
464,11.999998605837299
465,0.8113775429980051
2,1, 1, 1, 0, 7,30.00,45.00,Monday
6,7.7
7,93.0
8,5.975
9,240.0
10,0.0
11,0.0
12,0.0
211,0.0
212,0.0
307,-3.675970634356522
308,99.98903397415211
309,12.413799683086545
310,0.6104920319896938
209,12.184858319142519
210,68.84166067657297
306,603.6115308797785
462,11.999998921774497
463,0.8113775429980051
464,11.999998921774497
465,0.8113775429980051
2,1, 1, 1, 0, 7,45.00,60.00,Monday
6,7.7
7,93.0
8,6.1
9,240.0
10,0.0
11,0.0
12,0.0
211,0.0
212,0.0
307,-3.684963183791172
308,99.98982179053452
309,12.371056043980339
310,0.6104920319896938
209,12.168302833670249
210,68.91781397905467
306,603.6115308797785
462,11.999999073554463
463,0.8113775429980051
464,11.999999073554463
465,0.8113775429980051
2,1, 1, 1, 0, 8, 0.00,15.00,Monday
6,7.7
7,93.0
8,6.1
9,242.5
10,0.0
11,0.0
12,0.0
211,0.0
212,0.0
307,-3.6913486862666735
308,99.99034939597121
309,12.339255364294918
310,0.6104920319896938
209,12.157071733574313
210,68.9846505215185
306,603.6115308797785
462,12.000000816172209
463,0.8113775429980051
464,12.000000816172209
465,0.8113775429980051
2,1, 1, 1, 0, 8,15.00,30.00,Monday
6,7.7
7,93.0
8,6.1
9,245.0
10,0.0
11,0.0
12,0.0
211,0.0
212,0.0
307,-3.6958856354102798
308,99.99070892208208
309,12.315914964667549
310,0.6104920319896938
209,12.1488186902661
210,69.03673932314799
306,603.6115308797785
462,12.000001929989237
463,0.8113775429980051
464,12.000001929989237
465,0.8113775429980051
2,1, 1, 1, 0, 8,30.00,45.00,Monday
6,7.7
7,93.0
8,6.1
9,247.5
10,0.0
11,0.0
12,0.0
211,0.0
212,0.0
307,-3.6991901837992238
308,99.99096302281375
309,12.298919948003745
310,0.6104920319896938
209,12.14270994151502
210,69.0777339122763
306,603.6115308797785
462,12.000003046229953
463,0.8113775429980051
464,12.000003046229953
465,0.8113775429980051
2,1, 1, 1, 0, 8,45.00,60.00,Monday
6,7.7
7,93.0
8,6.1
9,250.0
10,10.5
11,0.0
12,0.0
211,0.0
212,0.0
307,-3.700638482455667
308,99.99107236951392
309,12.29442936499142
310,0.6104920319896938
209,12.140466779396716
210,69.09987054908375
306,603.6115308797785
462,12.000003914439125
463,0.8113775429980051
464,12.000003914439125
465,0.8113775429980051
2,1, 1, 1, 0, 9, 0.00,15.00,Monday
6,7.7
7,93.0
8,6.374999999999999
9,250.0
10,15.75
11,0.0
12,11.0
211,0.0
212,0.0
307,-3.5478203937038979
308,99.96983599112342
309,13.527642769100725
310,0.6104920319896938
209,13.260954746833067
210,64.61376327156524
306,603.6115308797785
462,12.000015885997206
463,0.8113775429980051
464,12.000015885997206
465,0.8113775429980051
2,1, 1, 1, 0, 9,15.00,30.00,Monday
6,7.7
7,93.0
8,6.65
9,250.0
10,21.0
11,0.0
12,11.0
211,0.0
212,0.0
307,-3.272619177589238
308,99.80326439239548
309,14.350196518904898
310,0.6104920319896938
209,13.627278846089363
210,63.37041236290398
306,603.6115308797785
462,12.000058790428965
463,0.8113775429980051
464,12.000058790428965
465,0.811377542998005
2,1, 1, 1, 0, 9,30.00,45.00,Monday
6,7.7
7,93.0
8,6.925000000000001
9,250.0
10,25.25
11,0.0
12,11.0
211,0.0
212,0.0
307,-3.161961913482735
308,99.62331614869298
309,14.775024125096122
310,0.6104920319896938
209,13.834268618085592
210,62.774432495663379
306,603.6115308797785
462,12.000042700357746
463,0.8113775429980051
464,12.000042700357746
465,0.8113775429980051
2,1, 1, 1, 0, 9,45.00,60.00,Monday
6,7.7
7,93.0
8,7.2
9,250.0
10,29.5
11,0.0
12,11.0
211,0.0
212,0.0
307,-3.097185422548212
308,99.46295681992723
309,15.029562955943007
310,0.6104920319896938
209,13.927649904535715
210,62.56586576512515
306,603.6115308797785
462,11.999987798795765
463,0.8113775429980051
464,11.999987798795765
465,0.8113775429980051
2,1, 1, 1, 0,10, 0.00,15.00,Monday
6,7.7
7,93.0
8,7.050000000000001
9,252.5
10,33.75
11,0.0
12,11.0
211,0.0
212,0.0
307,-3.036152435399078
308,99.26214340548437
309,15.395199303968118
310,0.6104920319896938
209,14.278075052332241
210,61.23152496367601
306,603.6115308797785
462,11.99999707674321
463,0.8113775429980051
464,11.99999707674321
465,0.8113775429980051
2,1, 1, 1, 0,10,15.00,30.00,Monday
6,7.7
7,93.0
8,6.9
9,255.0
10,38.0
11,0.0
12,11.0
211,0.0
212,0.0
307,-2.9417731367185775
308,98.82997191217678
309,15.713138120630847
310,0.6104920319896938
209,14.458758359139477
210,60.61680496785383
306,603.6115308797785
462,11.999999746281223
463,0.8113775429980051
464,11.999999746281223
465,0.8113775429980051
2,1, 1, 1, 0,10,30.00,45.00,Monday
6,7.7
7,93.0
8,6.749999999999999
9,257.5
10,43.5
11,0.0
12,11.0
211,0.0
212,0.0
307,-2.8904877660631604
308,98.51889416129522
309,15.895567904345504
310,0.6104920319896938
209,14.515760951966313
210,60.45563236460373
306,603.6115308797785
462,11.999999021275336
463,0.8113775429980051
464,11.999999021275336
465,0.8113775429980051
2,1, 1, 1, 0,10,45.00,60.00,Monday
6,7.7
7,93.0
8,6.6
9,260.0
10,49.0
11,0.0
12,11.0
211,0.0
212,0.0
307,-2.863250919191455
308,98.32817284032868
309,16.03934668508653
310,0.6104920319896938
209,14.55758753894282
210,60.32195618388757
306,603.6115308797785
462,11.999999300098237
463,0.8113775429980051
464,11.999999300098237
465,0.8113775429980051
2,1, 1, 1, 0,11, 0.00,15.00,Monday
6,7.7
7,93.0
8,6.475
9,260.0
10,54.5
11,0.0
12,11.0
211,0.0
212,0.0
307,-2.837864323077497
308,98.13302147699172
309,16.188233430112459
310,0.6104920319896938
209,14.611142799689466
210,60.127722596650638
306,603.6115308797785
462,11.999998014265229
463,0.8113775429980051
464,11.999998014265229
465,0.8113775429980051
2,1, 1, 1, 0,11,15.00,30.00,Monday
6,7.7
7,93.0
8,6.35
9,260.0
10,60.0
11,0.0
12,11.0
211,0.0
212,0.0
307,-2.8159841569077339
308,97.95054472048821
309,16.2951263871148
310,0.6104920319896938
209,14.653885612614396
210,59.972138903188177
306,603.6115308797785
462,12.000000123443617
463,0.8113775429980051
464,12.000000123443617
465,0.8113775429980051
2,1, 1, 1, 0,11,30.00,45.00,Monday
6,7.7
7,93.0
8,6.225
9,260.0
10,63.75
11,0.0
12,11.0
211,0.0
212,0.0
307,-2.798162661431421
308,97.79165193046518
309,16.383217290500398
310,0.6104920319896938
209,14.685532165659318
210,59.855040884844
306,603.6115308797785
462,12.000000225127547
463,0.8113775429980051
464,12.000000225127547
465,0.8113775429980051
2,1, 1, 1, 0,11,45.00,60.00,Monday
6,7.7
7,93.0
8,6.1
9,260.0
10,67.5
11,0.0
12,11.0
211,0.0
212,0.0
307,-2.7839648706776289
308,97.65820750252071
309,16.456339764921386
310,0.6104920319896938
209,14.711634982784649
210,59.75735025282615
306,603.6115308797785
462,12.000000212990706
463,0.8113775429980051
464,12.000000212990706
465,0.8113775429980051
2,1, 1, 1, 0,12, 0.00,15.00,Monday
6,7.7
7,93.0
8,6.1
9,257.5
10,71.25
11,0.0
12,8.8
211,0.0
212,0.0
307,-2.785063256537
308,97.66875311258481
309,16.41604854765433
310,0.6104920319896938
209,14.607302967148519
210,60.06030635823825
306,603.6115308797785
462,12.000000396364632
463,0.8113775429980051
464,12.000000396364632
465,0.8113775429980051
2,1, 1, 1, 0,12,15.00,30.00,Monday
6,7.7
7,93.0
8,6.1
9,255.0
10,75.0
11,0.0
12,8.8
211,0.0
212,0.0
307,-2.8036699233161754
308,97.84176244114873
309,16.39915652364157
310,0.6104920319896938
209,14.566622547698758
210,60.16378021208789
306,603.6115308797785
462,12.000000237514849
463,0.8113775429980051
464,12.000000237514849
465,0.8113775429980051
2,1, 1, 1, 0,12,30.00,45.00,Monday
6,7.7
7,93.0
8,6.1
9,252.5
10,80.25
11,0.0
12,8.8
211,0.0
212,0.0
307,-2.8103856909489957
308,97.90164298897473
309,16.397276902979568
310,0.6104920319896938
209,14.570984501816428
210,60.11209005459259
306,603.6115308797785
462,12.000006072412944
463,0.8113775429980051
464,12.000006072412944
465,0.8113775429980051
2,1, 1, 1, 0,12,45.00,60.00,Monday
6,7.7
7,93.0
8,6.1
9,250.0
10,85.5
11,0.0
12,8.8
211,0.0
212,0.0
307,-2.8077485173829519
308,97.87828841223876
309,16.413798544805738
310,0.6104920319896938
209,14.57992024406731
210,60.04861738254274
306,603.6115308797785
462,12.0000041911914
463,0.8113775429980051
464,12.0000041911914
465,0.8113775429980051
2,1, 1, 1, 0,13, 0.00,15.00,Monday
6,7.8500000000000009
7,91.25
8,5.975
9,252.5
10,90.75
11,0.0
12,4.4
211,0.0
212,0.0
307,-2.8346286551138566
308,98.10688806226662
309,16.19241696878541
310,0.6104920319896938
209,14.323798665340055
210,60.62118669397519
306,603.6115308797785
462,12.000042811252463
463,0.8113775429980051
464,12.000042811252463
465,0.8113775429980051
2,1, 1, 1, 0,13,15.00,30.00,Monday
6,8.0
7,89.5
8,5.85
9,255.0
10,96.0
11,0.0
12,4.4
211,0.0
212,0.0
307,-2.8897757508603796
308,98.51414385003194
309,16.081733598143868
310,0.6104920319896938
209,14.210712351163077
210,60.63707485657773
306,603.6115308797785
462,12.000044623811306
463,0.8113775429980051
464,12.000044623811306
465,0.8113775429980051
2,1, 1, 1, 0,13,30.00,45.00,Monday
6,8.15
7,87.75
8,5.725
9,257.5
10,93.75
11,0.0
12,4.4
211,0.0
212,0.0
307,-2.9165052541158884
308,98.68418869080242
309,16.021302273491029
310,0.6104920319896938
209,14.200501287449989
210,60.22220303119386
306,603.6115308797785
462,12.000068730975706
463,0.8113775429980051
464,12.000068730975706
465,0.8113775429980051
2,1, 1, 1, 0,13,45.00,60.00,Monday
6,8.3
7,86.0
8,5.6
9,260.0
10,91.5
11,0.0
12,4.4
211,0.0
212,0.0
307,-2.9214465428722384
308,98.7138090712704
309,16.00851563666138
310,0.6104920319896938
209,14.204327405451805
210,59.69491313639648
306,603.6115308797785
462,12.000074397353269
463,0.8113775429980051
464,12.000074397353269
465,0.8113775429980051
2,1, 1, 1, 0,14, 0.00,15.00,Monday
6,8.15
7,86.0
8,5.85
9,260.0
10,89.25
11,0.0
12,8.8
211,0.0
212,0.0
307,-2.896516705437743
308,98.55862453771018
309,16.206020162629018
310,0.6104920319896938
209,14.455034833772653
210,58.4272727262278
306,603.6115308797785
462,12.000068633552609
463,0.8113775429980051
464,12.000068633552609
465,0.8113775429980051
2,1, 1, 1, 0,14,15.00,30.00,Monday
6,8.0
7,86.0
8,6.1
9,260.0
10,87.0
11,0.0
12,8.8
211,0.0
212,0.0
307,-2.844971341348629
308,98.18940788866196
309,16.327101816665456
310,0.6104920319896938
209,14.565656581089846
210,57.61228740165058
306,603.6115308797785
462,12.000073634462263
463,0.8113775429980051
464,12.000073634462263
465,0.8113775429980051
2,1, 1, 1, 0,14,30.00,45.00,Monday
6,7.8500000000000009
7,86.0
8,6.35
9,260.0
10,85.0
11,0.0
12,8.8
211,0.0
212,0.0
307,-2.8206915952571069
308,97.99095706392156
309,16.396430837387756
310,0.6104920319896938
209,14.577949639751815
210,57.1107261100649
306,603.6115308797785
462,12.000065327877533
463,0.8113775429980051
464,12.000065327877533
465,0.8113775429980051
2,1, 1, 1, 0,14,45.00,60.00,Monday
6,7.7
7,86.0
8,6.6
9,260.0
10,83.0
11,0.0
12,8.8
211,0.0
212,0.0
307,-2.818946479993511
308,97.97605042053836
309,16.40937375604795
310,0.6104920319896938
209,14.574624172653343
210,56.65910107799834
306,603.6115308797785
462,12.000066539330092
463,0.8113775429980051
464,12.000066539330092
465,0.8113775429980051
2,1, 1, 1, 0,15, 0.00,15.00,Monday
6,7.575
7,86.0
8,6.749999999999999
9,262.5
10,81.0
11,0.0
12,11.0
211,0.0
212,0.0
307,-2.8065268208275135
308,97.8673993904368
309,16.524824014819047
310,0.6104920319896938
209,14.658970798781786
210,56.01800432107665
306,603.6115308797785
462,12.000064519151336
463,0.8113775429980051
464,12.000064519151336
465,0.8113775429980051
2,1, 1, 1, 0,15,15.00,30.00,Monday
6,7.45
7,86.0
8,6.9
9,265.0
10,79.0
11,0.0
12,11.0
211,0.0
212,0.0
307,-2.790086064423162
308,97.71650020735577
309,16.562316989861786
310,0.6104920319896938
209,14.6953982573985
210,55.507659601746677
306,603.6115308797785
462,12.000065472636166
463,0.8113775429980051
464,12.000065472636166
465,0.8113775429980051
2,1, 1, 1, 0,15,30.00,45.00,Monday
6,7.325
7,86.0
8,7.050000000000001
9,267.5
10,71.75
11,0.0
12,11.0
211,0.0
212,0.0
307,-2.7853532113609837
308,97.67153070584084
309,16.5672515506779
310,0.6104920319896938
209,14.692975786787376
210,55.12219158547044
306,603.6115308797785
462,12.000058260975969
463,0.8113775429980051
464,12.000058260975969
465,0.8113775429980051
2,1, 1, 1, 0,15,45.00,60.00,Monday
6,7.2
7,86.0
8,7.2
9,270.0
10,64.5
11,0.0
12,11.0
211,0.0
212,0.0
307,-2.7904476500472299
308,97.71990739715997
309,16.542467334152648
310,0.6104920319896938
209,14.680733112126659
210,54.77136575718754
306,603.6115308797785
462,12.000059373571045
463,0.8113775429980051
464,12.000059373571045
465,0.8113775429980051
2,1, 1, 1, 0,16, 0.00,15.00,Monday
6,7.050000000000001
7,85.0
8,7.325
9,270.0
10,57.25
11,0.0
12,11.0
211,0.0
212,0.0
307,-2.8030390849817108
308,97.83606864505986
309,16.4711119424311
310,0.6104920319896938
209,14.61133200982178
210,54.37088475536711
306,603.6115308797785
462,12.000106188365669
463,0.8113775429980051
464,12.000106188365669
465,0.8113775429980051
2,1, 1, 1, 0,16,15.00,30.00,Monday
6,6.9
7,84.0
8,7.45
9,270.0
10,50.0
11,0.0
12,11.0
211,0.0
212,0.0
307,-2.8270408113723146
308,98.0444541552313
309,16.386497611983008
310,0.6104920319896938
209,14.566005522673104
210,53.786202614056559
306,603.6115308797785
462,12.00010304720858
463,0.8113775429980051
464,12.00010304720858
465,0.8113775429980051
2,1, 1, 1, 0,16,30.00,45.00,Monday
6,6.749999999999999
7,83.0
8,7.575
9,270.0
10,42.0
11,0.0
12,11.0
211,0.0
212,0.0
307,-2.848240368122011
308,98.21488078306833
309,16.297674266311846
310,0.6104920319896938
209,14.535858835594257
210,53.09669805254368
306,603.6115308797785
462,12.000115501684484
463,0.8113775429980051
464,12.000115501684484
465,0.8113775429980051
2,1, 1, 1, 0,16,45.00,60.00,Monday
6,6.6
7,82.0
8,7.7
9,270.0
10,34.0
11,0.0
12,11.0
211,0.0
212,0.0
307,-2.8672577139229324
308,98.35741212479094
309,16.209069493628634
310,0.6104920319896938
209,14.504617647696094
210,52.36156208513895
306,603.6115308797785
462,12.00012278483309
463,0.8113775429980051
464,12.00012278483309
465,0.8113775429980051
2,1, 1, 1, 0,17, 0.00,15.00,Monday
6,6.324999999999999
7,83.0
8,7.575
9,272.5
10,26.0
11,0.0
12,11.0
211,0.0
212,0.0
307,-2.8939024608710537
308,98.54150461935476
309,16.063030185303498
310,0.6104920319896938
209,14.364862614719254
210,52.22730320446141
306,603.6115308797785
462,12.00007338394821
463,0.8113775429980051
464,12.00007338394821
465,0.8113775429980051
2,1, 1, 1, 0,17,15.00,30.00,Monday
6,6.05
7,84.0
8,7.45
9,275.0
10,18.0
11,0.0
12,11.0
211,0.0
212,0.0
307,-2.9369055269591874
308,98.80297177586832
309,15.91218475532932
310,0.6104920319896938
209,14.281398958787383
210,51.969658082418529
306,603.6115308797785
462,12.000079930255824
463,0.8113775429980051
464,12.000079930255824
465,0.8113775429980051
2,1, 1, 1, 0,17,30.00,45.00,Monday
6,5.775
7,85.0
8,7.325
9,277.5
10,13.5
11,0.0
12,11.0
211,0.0
212,0.0
307,-2.9696556125514799
308,98.97514940325492
309,15.771463643681479
310,0.6104920319896938
209,14.23583089359735
210,51.65565694700075
306,603.6115308797785
462,12.000061483430475
463,0.8113775429980051
464,12.000061483430475
465,0.8113775429980051
2,1, 1, 1, 0,17,45.00,60.00,Monday
6,5.5
7,86.0
8,7.2
9,280.0
10,0.0
11,0.0
12,11.0
211,0.0
212,0.0
307,-2.995182586688308
308,99.09467098087444
309,15.639268319742112
310,0.6104920319896938
209,14.191740292161189
210,51.39676224383971
306,603.6115308797785
462,12.000055683355166
463,0.8113775429980051
464,12.000055683355166
465,0.8113775429980051
2,1, 1, 1, 0,18, 0.00,15.00,Monday
6,5.225
7,86.75
8,7.050000000000001
9,280.0
10,0.0
11,0.0
12,11.0
211,0.0
212,0.0
307,-3.01910305154488
308,99.19591335052393
309,15.515543458494476
310,0.6104920319896938
209,14.146416026456109
210,51.144144768392397
306,603.6115308797785
462,12.000060217182785
463,0.8113775429980051
464,12.000060217182785
465,0.8113775429980051
2,1, 1, 1, 0,18,15.00,30.00,Monday
6,4.95
7,87.5
8,6.9
9,280.0
10,0.0
11,0.0
12,11.0
211,0.0
212,0.0
307,-3.0420867438453769
308,99.28409422742989
309,15.400896711894639
310,0.6104920319896938
209,14.10442241053103
210,50.8910115707012
306,603.6115308797785
462,12.000054992539737
463,0.8113775429980051
464,12.000054992539737
465,0.8113775429980051
2,1, 1, 1, 0,18,30.00,45.00,Monday
6,4.675000000000001
7,88.25
8,6.749999999999999
9,280.0
10,0.0
11,0.0
12,11.0
211,0.0
212,0.0
307,-3.0632281497250104
308,99.3578887817375
309,15.296310663282873
310,0.6104920319896938
209,14.066690814381417
210,50.632099244497997
306,603.6115308797785
462,12.000055237340002
463,0.8113775429980051
464,12.000055237340002
465,0.8113775429980051
2,1, 1, 1, 0,18,45.00,60.00,Monday
6,4.4
7,89.0
8,6.6
9,280.0
10,0.0
11,0.0
12,11.0
211,0.0
212,0.0
307,-3.0825676236850607
308,99.41966891645075
309,15.20042766997811
310,0.6104920319896938
209,14.032265566422812
210,50.365896207753397
306,603.6115308797783
462,12.000054590694776
463,0.8113775429980051
464,12.000054590694776
465,0.811377542998005
2,1, 1, 1, 0,19, 0.00,15.00,Monday
6,4.25
7,88.25
8,6.475
9,285.0
10,0.0
11,0.0
12,5.5
211,0.0
212,0.0
307,-3.173015980257229
308,99.6460937777962
309,14.5331431142538
310,0.6104920319896938
209,13.471075503134978
210,51.47166985929809
306,603.6115308797783
462,12.000013674748189
463,0.8113775429980051
464,12.000013674748189
465,0.811377542998005
2,1, 1, 1, 0,19,15.00,30.00,Monday
6,4.1
7,87.5
8,6.35
9,290.0
10,0.0
11,0.0
12,5.5
211,0.0
212,0.0
307,-3.3198182369760236
308,99.85345452254258
309,14.07206889782851
310,0.6104920319896938
209,13.222242851779449
210,51.49149367769752
306,603.6115308797785
462,12.00001021693146
463,0.8113775429980051
464,12.00001021693146
465,0.8113775429980051
2,1, 1, 1, 0,19,30.00,45.00,Monday
6,3.9499999999999999
7,86.75
8,6.225
9,295.0
10,0.0
11,0.0
12,5.5
211,0.0
212,0.0
307,-3.3933215852799218
308,99.90935409705073
309,13.813229799901198
310,0.6104920319896938
209,13.130629877010865
210,52.03523291705867
306,1035.134302411039
462,11.999901579586979
463,0.8113775429980051
464,11.999901579586979
465,0.8113775429980051
2,1, 1, 1, 0,19,45.00,60.00,Monday
6,3.8
7,86.0
8,6.1
9,300.0
10,0.0
11,0.0
12,5.5
211,0.0
212,0.0
307,-3.4283047674321955
308,99.92856567893304
309,13.638298965652038
310,0.6104920319896938
209,13.07158855509296
210,52.218563473740868
306,1017.4265503021603
462,12.000048131732875
463,0.8113775429980051
464,12.000048131732875
465,0.8113775429980051
2,1, 1, 1, 0,20, 0.00,15.00,Monday
6,3.5249999999999996
7,86.75
8,5.975
9,300.0
10,0.0
11,0.0
12,1.1
211,0.0
212,0.0
307,-3.517550792056286
308,99.96220266687061
309,12.98956968826574
310,0.6104920319896938
209,12.655414922600882
210,53.64271377718836
306,984.6228386968448
462,11.999998199325543
463,0.8113775429980051
464,11.999998199325543
465,0.8113775429980051
2,1, 1, 1, 0,20,15.00,30.00,Monday
6,3.25
7,87.5
8,5.85
9,300.0
10,0.0
11,0.0
12,1.1
211,0.0
212,0.0
307,-3.6333033764564859
308,99.98448046716537
309,12.570780192109997
310,0.6104920319896938
209,12.442337092225675
210,54.395730467001779
306,921.1404361433928
462,12.00001517169381
463,0.8113775429980051
464,12.00001517169381
465,0.8113775429980051
2,1, 1, 1, 0,20,30.00,45.00,Monday
6,2.9750000000000007
7,88.25
8,5.725
9,300.0
10,0.0
11,0.0
12,1.1
211,0.0
212,0.0
307,-3.697827216148224
308,99.9908589997101
309,12.312573283379466
310,0.6104920319896938
209,12.347358536213969
210,54.68116751953349
306,872.9360854674903
462,12.000050406013806
463,0.8113775429980051
464,12.000050406013806
465,0.8113775429980051