Program Version,EnergyPlus, Version 8.6.0-198c6a3cff, YMD=2021.06.29 21:35
1,5,Environment Title[],Latitude[deg],Longitude[deg],Time Zone[],Elevation[m]
2,6,Day of Simulation[],Month[],Day of Month[],DST Indicator[1=yes 0=no],Hour[],StartMinute[],EndMinute[],DayType
3,3,Cumulative Day of Simulation[],Month[],Day of Month[],DST Indicator[1=yes 0=no],DayType  ! When Daily Report Variables Requested
4,2,Cumulative Days of Simulation[],Month[]  ! When Monthly Report Variables Requested
5,1,Cumulative Days of Simulation[] ! When Run Period Report Variables Requested
6,1,Environment,Site Outdoor Air Drybulb Temperature [C] !TimeStep
7,1,Environment,Site Outdoor Air Relative Humidity [%] !TimeStep
8,1,Environment,Site Wind Speed [m/s] !TimeStep
9,1,Environment,Site Wind Direction [deg] !TimeStep
10,1,Environment,Site Diffuse Solar Radiation Rate per Area [W/m2] !TimeStep
11,1,Environment,Site Direct Solar Radiation Rate per Area [W/m2] !TimeStep
12,1,SPACE1-1,Zone People Occupant Count [] !TimeStep
209,1,SPACE1-1,Zone Air Temperature [C] !TimeStep
210,1,SPACE1-1,Zone Air Relative Humidity [%] !TimeStep
211,1,SPACE1-1,Zone Thermostat Heating Setpoint Temperature [C] !TimeStep
212,1,SPACE1-1,Zone Thermostat Cooling Setpoint Temperature [C] !TimeStep
306,1,Whole Building,Facility Total HVAC Electric Demand Power [W] !TimeStep
307,1,SPACE1-1 PEOPLE 1,Zone Thermal Comfort Fanger Model PMV [] !TimeStep
308,1,SPACE1-1 PEOPLE 1,Zone Thermal Comfort Fanger Model PPD [%] !TimeStep
309,1,SPACE1-1 PEOPLE 1,Zone Thermal Comfort Mean Radiant Temperature [C] !TimeStep
310,1,SPACE1-1 PEOPLE 1,Zone Thermal Comfort Clothing Value [clo] !TimeStep
462,1,SPACE1-1 IN NODE,System Node Temperature [C] !TimeStep
463,1,SPACE1-1 IN NODE,System Node Mass Flow Rate [kg/s] !TimeStep
464,1,VAV SYS 1 OUTLET NODE,System Node Temperature [C] !TimeStep
465,1,VAV SYS 1 OUTLET NODE,System Node Mass Flow Rate [kg/s] !TimeStep
End of Data Dictionary
1,Pittsburgh Allegheny Co Ap PA USA TMY3 WMO#=725205,  40.35, -79.92,  -5.00, 380.00
2,1, 1, 1, 0, 1, 0.00,15.00,Monday
6,1.8
7,95.25
8,4.1
9,265.0
10,0.0
11,0.0
12,0.0
211,30.0
212,30.0
307,-1.400056727049901
308,45.514830011685138
309,16.573519774980075
310,0.7499999951999999
209,22.26124996077253
210,37.96997209126734
306,7822.535650286513
462,25.825508449661684
463,0.8113775429980051
464,18.00000588356531
465,0.8113775429980051
2,1, 1, 1, 0, 1,15.00,30.00,Monday
6,3.6
7,95.5
8,4.1
9,240.0
10,0.0
11,0.0
12,0.0
211,30.0
212,30.0
307,-1.1444456408531135
308,32.578651384226578
309,17.245740548956748
310,0.7499999951999999
209,22.64493221178013
210,36.98030452169398
306,7880.758691749899
462,25.825602955586008
463,0.8113775429980051
464,17.999997634203866
465,0.8113775429980051
2,1, 1, 1, 0, 1,30.00,45.00,Monday
6,5.4
7,95.75
8,4.1
9,215.0
10,0.0
11,0.0
12,0.0
211,30.0
212,30.0
307,-1.0393443731134229
308,27.805290303290279
309,17.706144033335158
310,0.7499999951999999
209,27.09430188876997
210,28.10428804754458
306,6631.823217974071
462,74.38655773531167
463,0.11331676654099045
464,17.99960494760497
465,0.1132835998836223
2,1, 1, 1, 0, 1,45.00,60.00,Monday
6,7.2
7,96.0
8,4.1
9,190.0
10,0.0
11,0.0
12,0.0
211,30.0
212,30.0
307,-0.13955399425546129
308,5.403497640343545
309,20.12184242364614
310,0.7499999951999999
209,29.56053169069702
210,24.166876024742355
306,6024.054946135762
462,82.837456539792
463,0.08886182252976371
464,18.004008668615698
465,0.08884979974218685
2,1, 1, 1, 0, 2, 0.00,15.00,Monday
6,7.2
7,96.0
8,4.35
9,197.5
10,0.0
11,0.0
12,0.0
211,30.0
212,30.0
307,0.3534340632085632
308,7.599298096752435
309,21.385759621060886
310,0.7499999951999999
209,29.982334600606344
210,23.553302591090394
306,5224.951590658995
462,76.44432805279293
463,0.08529786211126933
464,18.0036751714457
465,0.08529786211126922
2,1, 1, 1, 0, 2,15.00,30.00,Monday
6,7.2
7,96.0
8,4.6
9,205.0
10,0.0
11,0.0
12,0.0
211,30.0
212,30.0
307,0.4874859389810901
308,9.964772579793874
309,22.013988317411877
310,0.7499999951999999
209,29.9996073972043
210,23.465692100896076
306,4840.5078848568955
462,74.74869032620441
463,0.08148806647447815
464,18.000002613801465
465,0.08148806647447815
2,1, 1, 1, 0, 2,30.00,45.00,Monday
6,7.2
7,96.0
8,4.85
9,212.5
10,0.0
11,0.0
12,0.0
211,30.0
212,30.0
307,0.5374456619416528
308,11.044216081213677
309,22.41235666924265
310,0.7499999951999999
209,30.00035976771181
210,23.39574992118264
306,4587.942139659482
462,71.99794020276529
463,0.08113775429980053
464,18.00000460925882
465,0.08113775429980053
2,1, 1, 1, 0, 2,45.00,60.00,Monday
6,7.2
7,96.0
8,5.1
9,220.0
10,0.0
11,0.0
12,0.0
211,30.0
212,30.0
307,0.5681225419921565
308,11.760583629717658
309,22.669890209864858
310,0.7499999951999999
209,30.000318702059255
210,23.341145923561184
306,4452.553218062525
462,70.3904761307524
463,0.08113775429980053
464,18.00000887377072
465,0.08113775429980053
2,1, 1, 1, 0, 3, 0.00,15.00,Monday
6,7.2
7,96.0
8,4.975
9,220.0
10,0.0
11,0.0
12,0.0
211,30.0
212,30.0
307,0.5885065339032847
308,12.25916173437139
309,22.842014774189257
310,0.7499999951999999
209,30.000265707920247
210,23.29882418490413
306,4366.477189486565
462,69.36888778519936
463,0.08113775429980053
464,18.000009848371325
465,0.08113775429980053
2,1, 1, 1, 0, 3,15.00,30.00,Monday
6,7.2
7,96.0
8,4.85
9,220.0
10,0.0
11,0.0
12,0.0
211,30.0
212,30.0
307,0.6024233877203125
308,12.609915666570288
309,22.959816550933206
310,0.7499999951999999
209,30.000241474730417
210,23.26254514608595
306,4306.6068018493115
462,68.65855292838146
463,0.08113775429980053
464,18.000009476125798
465,0.08113775429980053
2,1, 1, 1, 0, 3,30.00,45.00,Monday
6,7.2
7,96.0
8,4.725
9,220.0
10,0.0
11,0.0
12,0.0
211,30.0
212,30.0
307,0.6122292566898758
308,12.862106243203997
309,23.043257972299665
310,0.7499999951999999
209,30.00022585031885
210,23.229068998845958
306,4262.920127807008
462,68.14035378321903
463,0.08113775429980053
464,18.000008363097235
465,0.08113775429980053
2,1, 1, 1, 0, 3,45.00,60.00,Monday
6,7.2
7,96.0
8,4.6
9,220.0
10,0.0
11,0.0
12,0.0
211,30.0
212,30.0
307,0.6193726445245822
308,13.048449559876559
309,23.104580932724898
310,0.7499999951999999
209,30.000205507111056
210,23.19816600767167
306,4229.666771653373
462,67.74595539351768
463,0.08113775429980053
464,18.00000694184611
465,0.08113775429980053
2,1, 1, 1, 0, 4, 0.00,15.00,Monday
6,7.325
7,95.25
8,4.725
9,225.0
10,0.0
11,0.0
12,0.0
211,30.0
212,30.0
307,0.6251911207220141
308,13.20186747837279
309,23.1543214454685
310,0.7499999951999999
209,30.000173852787687
210,23.17710741138365
306,4207.3478804714805
462,67.48127107718233
463,0.08113775429980053
464,18.00000501389752
465,0.08113775429980053
2,1, 1, 1, 0, 4,15.00,30.00,Monday
6,7.45
7,94.5
8,4.85
9,230.0
10,0.0
11,0.0
12,0.0
211,30.0
212,30.0
307,0.6302782752066308
308,13.337205992018199
309,23.197746973339617
310,0.7499999951999999
209,30.000146035867386
210,23.160133529699079
306,4188.005688245591
462,67.25189863286338
463,0.08113775429980053
464,18.000004480463895
465,0.08113775429980053
2,1, 1, 1, 0, 4,30.00,45.00,Monday
6,7.575
7,93.75
8,4.975
9,235.0
10,0.0
11,0.0
12,0.0
211,30.0
212,30.0
307,0.634950429497442
308,13.4624929618885
309,23.237417579895668
310,0.7499999951999999
209,30.000124316651435
210,23.146626872486395
306,4170.459557073133
462,67.04381565333452
463,0.08113775429980053
464,18.000003995143556
465,0.08113775429980053
2,1, 1, 1, 0, 4,45.00,60.00,Monday
6,7.7
7,93.0
8,5.1
9,240.0
10,0.0
11,0.0
12,0.0
211,30.0
212,30.0
307,0.6393554709138457
308,13.58148437353745
309,23.27459526108413
310,0.7499999951999999
209,30.000106679814807
210,23.13590577442554
306,4154.119843860214
462,66.8500108435642
463,0.08113775429980053
464,18.000003441347567
465,0.08113775429980053
2,1, 1, 1, 0, 5, 0.00,15.00,Monday
6,7.7
7,93.0
8,5.1
9,240.0
10,0.0
11,0.0
12,0.0
211,30.0
212,30.0
307,0.6429232319396224
308,13.678475562873047
309,23.305167994774818
310,0.7499999951999999
209,30.000094756765159
210,23.121243829762059
306,4138.725312461591
462,66.66741811003473
463,0.08113775429980053
464,18.000003274416707
465,0.08113775429980053
2,1, 1, 1, 0, 5,15.00,30.00,Monday
6,7.7
7,93.0
8,5.1
9,240.0
10,0.0
11,0.0
12,0.0
211,30.0
212,30.0
307,0.6458308703253113
308,13.757929266773829
309,23.33016337387091
310,0.7499999951999999
209,30.000083471842787
210,23.10827604976155
306,4126.012079184997
462,66.51662961629681
463,0.08113775429980053
464,18.00000274384323
465,0.08113775429980053
2,1, 1, 1, 0, 5,30.00,45.00,Monday
6,7.7
7,93.0
8,5.1
9,240.0
10,0.0
11,0.0
12,0.0
211,30.0
212,30.0
307,0.6481269685068953
308,13.82093115027574
309,23.35001424727148
310,0.7499999951999999
209,30.000072835132344
210,23.096888792930984
306,4115.7759437454015
462,66.39523387977329
463,0.08113775429980053
464,18.00000235402564
465,0.08113775429980053
2,1, 1, 1, 0, 5,45.00,60.00,Monday
6,7.7
7,93.0
8,5.1
9,240.0
10,0.0
11,0.0
12,0.0
211,30.0
212,30.0
307,0.6499128848670022
308,13.870092354735775
309,23.36556110603367
310,0.7499999951999999
209,30.00006339412926
210,23.086952958315817
306,4107.642726482521
462,66.29879454502736
463,0.08113775429980053
464,18.000002057412705
465,0.08113775429980053
2,1, 1, 1, 0, 6, 0.00,15.00,Monday
6,7.7
7,93.0
8,5.225
9,240.0
10,0.0
11,0.0
12,0.0
211,30.0
212,30.0
307,0.6512683207366159
308,13.90749594660133
309,23.37746714251548
310,0.7499999951999999
209,30.00005525449469
210,23.078280912623656
306,4104.262000415413
462,66.25879573726957
463,0.08113775429980053
464,18.00000180021599
465,0.08113775429980053
2,1, 1, 1, 0, 6,15.00,30.00,Monday
6,7.7
7,93.0
8,5.35
9,240.0
10,0.0
11,0.0
12,0.0
211,30.0
212,30.0
307,0.6522411339612243
308,13.934390061532867
309,23.38613994980018
310,0.7499999951999999
209,30.000048116369365
210,23.070707785322836
306,4102.459705918214
462,66.23752828314623
463,0.08113775429980053
464,18.00000156347063
465,0.08113775429980053
2,1, 1, 1, 0, 6,30.00,45.00,Monday
6,7.7
7,93.0
8,5.475
9,240.0
10,0.0
11,0.0
12,0.0
211,30.0
212,30.0
307,0.6529147415850126
308,13.953036460518149
309,23.39227568009756
310,0.7499999951999999
209,30.000041781581737
210,23.064108146009244
306,4101.904140786975
462,66.23105370807963
463,0.08113775429980053
464,18.0000013521271
465,0.08113775429980053
2,1, 1, 1, 0, 6,45.00,60.00,Monday
6,7.7
7,93.0
8,5.6
9,240.0
10,0.0
11,0.0
12,0.0
211,30.0
212,30.0
307,0.653365770857582
308,13.965532573182046
309,23.39651158179918
310,0.7499999951999999
209,30.00003618619648
210,23.058371192265385
306,4102.293035425751
462,66.23578353433688
463,0.08113775429980053
464,18.000001170237078
465,0.08113775429980053
2,1, 1, 1, 0, 7, 0.00,15.00,Monday
6,7.7
7,93.0
8,5.725
9,240.0
10,0.0
11,0.0
12,0.0
211,30.0
212,30.0
307,0.4645519927149201
308,9.505361679119659
309,23.3991511349294
310,0.6104920319896938
209,30.00003129204489
210,23.053394741052519
306,4103.4785058413745
462,66.25004085632874
463,0.08113775429980053
464,18.000078705183264
465,0.08113775429980053
2,1, 1, 1, 0, 7,15.00,30.00,Monday
6,7.7
7,93.0
8,5.85
9,240.0
10,0.0
11,0.0
12,0.0
211,30.0
212,30.0
307,0.46475150044596949
308,9.509260438511376
309,23.40100599210611
310,0.6104920319896938
209,30.000027031440604
210,23.04908389316961
306,4105.079774998754
462,66.26913769264518
463,0.08113775429980053
464,18.00006818848293
465,0.08113775429980053
2,1, 1, 1, 0, 7,30.00,45.00,Monday
6,7.7
7,93.0
8,5.975
9,240.0
10,0.0
11,0.0
12,0.0
211,30.0
212,30.0
307,0.46480531509028019
308,9.510312372339144
309,23.401731277125508
310,0.6104920319896938
209,30.0000233242956
210,23.045355117770418
306,4107.277540309479
462,66.29531189083652
463,0.08113775429980053
464,18.000058978794248
465,0.08113775429980053
2,1, 1, 1, 0, 7,45.00,60.00,Monday
6,7.7
7,93.0
8,6.1
9,240.0
10,0.0
11,0.0
12,0.0
211,30.0
212,30.0
307,0.46477588274073886
308,9.50973703236751
309,23.40179594345286
310,0.6104920319896938
209,30.0000200974487
210,23.042132867352547
306,4109.811154753719
462,66.32546790017796
463,0.08113775429980053
464,18.000050937695744
465,0.08113775429980053
2,1, 1, 1, 0, 8, 0.00,15.00,Monday
6,7.7
7,93.0
8,6.1
9,242.5
10,0.0
11,0.0
12,0.0
211,30.0
212,30.0
307,0.46489151896508426
308,9.511997689857296
309,23.402455546111097
310,0.6104920319896938
209,30.000023763149927
210,23.044577735396257
306,4109.127278850694
462,66.31746702562085
463,0.08113775429980053
464,18.000055145701617
465,0.08113775429980053
2,1, 1, 1, 0, 8,15.00,30.00,Monday
6,7.7
7,93.0
8,6.1
9,245.0
10,0.0
11,0.0
12,0.0
211,30.0
212,30.0
307,0.4650684656598363
308,9.515458065897463
309,23.403579415752018
310,0.6104920319896938
209,30.000026850421749
210,23.0465418516054
306,4108.255507507222
462,66.30722686154405
463,0.08113775429980053
464,18.000059612270517
465,0.08113775429980053
2,1, 1, 1, 0, 8,30.00,45.00,Monday
6,7.7
7,93.0
8,6.1
9,247.5
10,0.0
11,0.0
12,0.0
211,30.0
212,30.0
307,0.46529487778330588
308,9.519887756798085
309,23.40510605590075
310,0.6104920319896938
209,30.00002864026246
210,23.048136931374768
306,4107.228704026497
462,66.29514364838889
463,0.08113775429980053
464,18.000064313387307
465,0.08113775429980053
2,1, 1, 1, 0, 8,45.00,60.00,Monday
6,7.7
7,93.0
8,6.1
9,250.0
10,10.5
11,0.0
12,0.0
211,30.0
212,30.0
307,0.4666695973584886
308,9.546831181033852
309,23.415166184555056
310,0.6104920319896938
209,30.00002983637742
210,23.049494421143807
306,4102.3125316918495
462,66.23685284496949
463,0.08113775429980053
464,18.000068464660428
465,0.08113775429980053
2,1, 1, 1, 0, 9, 0.00,15.00,Monday
6,7.7
7,93.0
8,6.374999999999999
9,250.0
10,15.75
11,0.0
12,11.0
211,30.0
212,30.0
307,0.6074218021755343
308,12.737945085426376
309,24.45226318042753
310,0.6104920319896938
209,30.00159510318195
210,25.80988177900964
306,4301.425345384733
462,40.64509592146743
463,0.18138780806792177
464,18.00244364436783
465,0.18138780806792183
2,1, 1, 1, 0, 9,15.00,30.00,Monday
6,7.7
7,93.0
8,6.65
9,250.0
10,21.0
11,0.0
12,11.0
211,30.0
212,30.0
307,0.6770812067719768
308,14.635001196542277
309,24.75674566785636
310,0.6104920319896938
209,30.004120292907016
210,27.428631343343115
306,4107.193722474961
462,40.126139242945239
463,0.17703085166150069
464,18.000891860827964
465,0.17703085166150069
2,1, 1, 1, 0, 9,30.00,45.00,Monday
6,7.7
7,93.0
8,6.925000000000001
9,250.0
10,25.25
11,0.0
12,11.0
211,30.0
212,30.0
307,0.7180185252438437
308,15.847856277744186
309,24.933619864608454
310,0.6104920319896938
209,30.00851525560504
210,29.263634464373295
306,3994.5434835355927
462,39.87011651516565
463,0.17407021517583458
464,18.002467954083579
465,0.17407021517583458
2,1, 1, 1, 0, 9,45.00,60.00,Monday
6,7.7
7,93.0
8,7.2
9,250.0
10,29.5
11,0.0
12,11.0
211,30.0
212,30.0
307,0.7531724094115765
308,16.946971444383878
309,25.04981532503152
310,0.6104920319896938
209,30.009465379784353
210,30.900038716442336
306,3933.7709569217436
462,39.64221729736264
463,0.17313146043259035
464,18.00121942765969
465,0.17313146043259035
2,1, 1, 1, 0,10, 0.00,15.00,Monday
6,7.7
7,93.0
8,7.050000000000001
9,252.5
10,33.75
11,0.0
12,11.0
211,30.0
212,30.0
307,0.8052589463474953
308,18.67261548519464
309,25.307848984577107
310,0.6104920319896938
209,30.01032789613594
210,32.067270603773
306,3418.6175050116744
462,36.929464338635209
463,0.17168134162757035
464,18.001975714343428
465,0.17168134162757035
2,1, 1, 1, 0,10,15.00,30.00,Monday
6,7.7
7,93.0
8,6.9
9,255.0
10,38.0
11,0.0
12,11.0
211,30.0
212,30.0
307,0.8324399519939886
308,19.618744970116866
309,25.418854893468294
310,0.6104920319896938
209,30.01119529439516
210,32.88710998275616
306,3344.077828655884
462,36.666746789493618
463,0.17019875196048116
464,18.00206634730516
465,0.17019875196048116
2,1, 1, 1, 0,10,30.00,45.00,Monday
6,7.7
7,93.0
8,6.749999999999999
9,257.5
10,43.5
11,0.0
12,11.0
211,30.0
212,30.0
307,0.8520107265567611
308,20.319144283214585
309,25.49990393253074
310,0.6104920319896938
209,30.011595278948083
210,33.54391413301208
306,3288.1734463523417
462,36.46683567489269
463,0.16907868948914077
464,18.001590620281083
465,0.16907868948914077
2,1, 1, 1, 0,10,45.00,60.00,Monday
6,7.7
7,93.0
8,6.6
9,260.0
10,49.0
11,0.0
12,11.0
211,30.0
212,30.0
307,0.86785097852889
308,20.89769557512456
309,25.566323568747344
310,0.6104920319896938
209,30.011933191804379
210,34.09476574371453
306,3241.9999077283815
462,36.297567351684758
463,0.1681804026361768
464,18.001313927048146
465,0.1681804026361768
2,1, 1, 1, 0,11, 0.00,15.00,Monday
6,7.7
7,93.0
8,6.475
9,260.0
10,54.5
11,0.0
12,11.0
211,30.0
212,30.0
307,0.8880355820294987
308,21.649916622707069
309,25.672649009540977
310,0.6104920319896938
209,30.01221288756121
210,34.529795851779159
306,3179.4558260425315
462,36.02052455549909
463,0.16740299415748184
464,18.00116914512325
465,0.16740299415748184
2,1, 1, 1, 0,11,15.00,30.00,Monday
6,7.7
7,93.0
8,6.35
9,260.0
10,60.0
11,0.0
12,11.0
211,30.0
212,30.0
307,0.9015102270835624
308,22.161358278085957
309,25.73817029375075
310,0.6104920319896938
209,30.012450970536805
210,34.87057051675599
306,3133.9048355441537
462,35.85370386852672
463,0.16649423528799824
464,18.00139091961304
465,0.16649423528799824
2,1, 1, 1, 0,11,30.00,45.00,Monday
6,7.7
7,93.0
8,6.225
9,260.0
10,63.75
11,0.0
12,11.0
211,30.0
212,30.0
307,0.9125705220234331
308,22.58667200572431
309,25.793099796670164
310,0.6104920319896938
209,30.0126086828435
210,35.141157843361728
306,3096.1564085739033
462,35.70677621636112
463,0.1658098278911996
464,18.001075148558607
465,0.1658098278911996
2,1, 1, 1, 0,11,45.00,60.00,Monday
6,7.7
7,93.0
8,6.1
9,260.0
10,67.5
11,0.0
12,11.0
211,30.0
212,30.0
307,0.921943290681028
308,22.95095855804817
309,25.841006949712214
310,0.6104920319896938
209,30.012718425607653
210,35.359151162148219
306,3063.3985361797163
462,35.57400788117509
463,0.16525774330753416
464,18.00089115143927
465,0.16525774330753416
2,1, 1, 1, 0,12, 0.00,15.00,Monday
6,7.7
7,93.0
8,6.1
9,257.5
10,71.25
11,0.0
12,8.8
211,30.0
212,30.0
307,0.9205087491016738
308,22.894973979166026
309,25.814589344469039
310,0.6104920319896938
209,30.012101866665295
210,35.322300739973467
306,2840.1196425837857
462,36.93347138851708
463,0.14234491318513288
464,18.04064589732833
465,0.14234491318513288
2,1, 1, 1, 0,12,15.00,30.00,Monday
6,7.7
7,93.0
8,6.1
9,255.0
10,75.0
11,0.0
12,8.8
211,30.0
212,30.0
307,0.9224917131851651
308,22.972383181361566
309,25.83239780533504
310,0.6104920319896938
209,30.01179118321241
210,35.229367605285997
306,2831.7471115024327
462,36.8979583762157
463,0.14188901638506067
464,18.001102737406236
465,0.14184175552540732
2,1, 1, 1, 0,12,30.00,45.00,Monday
6,7.7
7,93.0
8,6.1
9,252.5
10,80.25
11,0.0
12,8.8
211,30.0
212,30.0
307,0.924729053249677
308,23.059911886408729
309,25.85575129299031
310,0.6104920319896938
209,30.011541531107608
210,35.180586806912668
306,2818.2156337748997
462,36.829524794882228
463,0.14170502466998123
464,18.00000440418132
465,0.1418763246670217
2,1, 1, 1, 0,12,45.00,60.00,Monday
6,7.7
7,93.0
8,6.1
9,250.0
10,85.5
11,0.0
12,8.8
211,30.0
212,30.0
307,0.9278804498592991
308,23.183540233212598
309,25.882416841665294
310,0.6104920319896938
209,30.011450286792468
210,35.160393805889139
306,2802.181644456862
462,36.754735767936157
463,0.14145527652178989
464,18.000437036163594
465,0.14170592172957356
2,1, 1, 1, 0,13, 0.00,15.00,Monday
6,7.8500000000000009
7,91.25
8,5.975
9,252.5
10,90.75
11,0.0
12,4.4
211,30.0
212,30.0
307,0.9074846852469257
308,22.390485813124273
309,25.736368500817549
310,0.6104920319896938
209,30.01019186250564
210,34.59935888192864
306,2398.4362351581244
462,41.71900293112816
463,0.09605683566191675
464,18.139170548725958
465,0.0962091690587795
2,1, 1, 1, 0,13,15.00,30.00,Monday
6,8.0
7,89.5
8,5.85
9,255.0
10,96.0
11,0.0
12,4.4
211,30.0
212,30.0
307,0.9011584742930171
308,22.14791326894688
309,25.733061260984007
310,0.6104920319896938
209,30.009565957613235
210,33.88906161273723
306,2393.750040464663
462,41.85597802986753
463,0.09480265036008572
464,18.00655046152636
465,0.09480265036008572
2,1, 1, 1, 0,13,30.00,45.00,Monday
6,8.15
7,87.75
8,5.725
9,257.5
10,93.75
11,0.0
12,4.4
211,30.0
212,30.0
307,0.8966227731433079
308,21.974996074018195
309,25.752823807059479
310,0.6104920319896938
209,30.008889483446546
210,33.298417433984997
306,2373.758158640474
462,41.7884680617329
463,0.09425604129430182
464,18.003548351743946
465,0.09407393476584494
2,1, 1, 1, 0,13,45.00,60.00,Monday
6,8.3
7,86.0
8,5.6
9,260.0
10,91.5
11,0.0
12,4.4
211,30.0
212,30.0
307,0.8943440547795059
308,21.888439065700895
309,25.78025496597152
310,0.6104920319896938
209,30.008554822083537
210,32.834616509060918
306,2347.885580247155
462,41.70686642006466
463,0.09354913185631166
464,18.00265686727613
465,0.09354921532906986
2,1, 1, 1, 0,14, 0.00,15.00,Monday
6,8.15
7,86.0
8,5.85
9,260.0
10,89.25
11,0.0
12,8.8
211,30.0
212,30.0
307,0.9099391582182477
308,22.485036628750579
309,25.927316449035336
310,0.6104920319896938
209,30.00961910196927
210,33.031013471873439
306,2740.8605976549106
462,36.735294365349918
463,0.13751672898916679
464,17.857614427803744
465,0.13752356100466094
2,1, 1, 1, 0,14,15.00,30.00,Monday
6,8.0
7,86.0
8,6.1
9,260.0
10,87.0
11,0.0
12,8.8
211,30.0
212,30.0
307,0.9163824940695787
308,22.734403351258466
309,25.958277525906824
310,0.6104920319896938
209,30.010483796559507
210,33.29984555526862
306,2735.7979138338983
462,36.592579908506078
463,0.13934136778350898
464,17.99615107305784
465,0.13934136778350898
2,1, 1, 1, 0,14,30.00,45.00,Monday
6,7.8500000000000009
7,86.0
8,6.35
9,260.0
10,85.0
11,0.0
12,8.8
211,30.0
212,30.0
307,0.9190848074560114
308,22.839484819377917
309,25.957162288569127
310,0.6104920319896938
209,30.011210713138199
210,33.377057270872068
306,2750.4817131655886
462,36.616163860169439
463,0.1399582050884381
464,17.998761596634215
465,0.1399582050884381
2,1, 1, 1, 0,14,45.00,60.00,Monday
6,7.7
7,86.0
8,6.6
9,260.0
10,83.0
11,0.0
12,8.8
211,30.0
212,30.0
307,0.9171496854184692
308,22.764206290263034
309,25.936649560424823
310,0.6104920319896938
209,30.01145931498343
210,33.33192247540022
306,2777.0856386849687
462,36.6913046450547
463,0.14076225507742386
464,17.997983352051177
465,0.14094265978910076
2,1, 1, 1, 0,15, 0.00,15.00,Monday
6,7.575
7,86.0
8,6.749999999999999
9,262.5
10,81.0
11,0.0
12,11.0
211,30.0
212,30.0
307,0.9252378784520257
308,23.079846030950905
309,25.997467062749249
310,0.6104920319896938
209,30.012399428885776
210,33.48987245134345
306,3064.4548602985
462,35.720961730869927
463,0.16370665286246406
464,17.958631994690707
465,0.16389662917707005
2,1, 1, 1, 0,15,15.00,30.00,Monday
6,7.45
7,86.0
8,6.9
9,265.0
10,79.0
11,0.0
12,11.0
211,30.0
212,30.0
307,0.9254548286701405
308,23.088348600322676
309,25.986367794381484
310,0.6104920319896938
209,30.01296761963365
210,33.640513982343389
306,3076.29462186262
462,35.75043876777087
463,0.16444647897299509
464,17.9992398212196
465,0.16444647897299509
2,1, 1, 1, 0,15,30.00,45.00,Monday
6,7.325
7,86.0
8,7.050000000000001
9,267.5
10,71.75
11,0.0
12,11.0
211,30.0
212,30.0
307,0.9230676623931059
308,22.99489615048607
309,25.957437241269884
310,0.6104920319896938
209,30.01344790021882
210,33.68315639520637
306,3101.4539455384343
462,35.837046468295579
463,0.16501411594630636
464,17.999217704329518
465,0.16501411594630636
2,1, 1, 1, 0,15,45.00,60.00,Monday
6,7.2
7,86.0
8,7.2
9,270.0
10,64.5
11,0.0
12,11.0
211,30.0
212,30.0
307,0.9177990540768104
308,22.789450704075948
309,25.91564376271832
310,0.6104920319896938
209,30.01369935077235
210,33.654476921552568
306,3134.9983525746425
462,35.95102120454719
463,0.16576418346369285
464,17.99867206379769
465,0.1659449805831571
2,1, 1, 1, 0,16, 0.00,15.00,Monday
6,7.050000000000001
7,85.0
8,7.325
9,270.0
10,57.25
11,0.0
12,11.0
211,30.0
212,30.0
307,0.9066772598586133
308,22.359435575197737
309,25.83759681294858
310,0.6104920319896938
209,30.014411407777318
210,33.53252808335353
306,3262.5784291614746
462,36.5853455797516
463,0.16672581612477908
464,17.99871874463818
465,0.16687484741346948
2,1, 1, 1, 0,16,15.00,30.00,Monday
6,6.9
7,84.0
8,7.45
9,270.0
10,50.0
11,0.0
12,11.0
211,30.0
212,30.0
307,0.8962800024622412
308,21.96196243438358
309,25.77034575222757
310,0.6104920319896938
209,30.01484566413491
210,33.33514228879587
306,3310.5947761256903
462,36.752468510086817
463,0.16771965625711167
464,17.9985990134445
465,0.16783236783836448
2,1, 1, 1, 0,16,30.00,45.00,Monday
6,6.749999999999999
7,83.0
8,7.575
9,270.0
10,42.0
11,0.0
12,11.0
211,30.0
212,30.0
307,0.8846907718410219
308,21.52410953858754
309,25.70026922366713
310,0.6104920319896938
209,30.01516781033255
210,33.082358854063929
306,3360.5849032624687
462,36.92521300834845
463,0.16875033377182456
464,17.998565755446813
465,0.16882636194552187
2,1, 1, 1, 0,16,45.00,60.00,Monday
6,6.6
7,82.0
8,7.7
9,270.0
10,34.0
11,0.0
12,11.0
211,30.0
212,30.0
307,0.872175367521721
308,21.057442725976558
309,25.627618543806589
310,0.6104920319896938
209,30.015432116174475
210,32.79111647078854
306,3412.177254831908
462,37.10145297804502
463,0.1698152105890691
464,17.998533976313696
465,0.16985652058090493
2,1, 1, 1, 0,17, 0.00,15.00,Monday
6,6.324999999999999
7,83.0
8,7.575
9,272.5
10,26.0
11,0.0
12,11.0
211,30.0
212,30.0
307,0.8516300278008442
308,20.305367630517197
309,25.499522601049553
310,0.6104920319896938
209,30.01599304264565
210,32.538536124461149
306,3646.466065090601
462,38.18808636480599
463,0.17184349513491938
464,17.99715876284004
465,0.1718525409574044
2,1, 1, 1, 0,17,15.00,30.00,Monday
6,6.05
7,84.0
8,7.45
9,275.0
10,18.0
11,0.0
12,11.0
211,30.0
212,30.0
307,0.8360561891653854
308,19.746958574626448
309,25.404201880895088
310,0.6104920319896938
209,30.016097547177155
210,32.33151455015957
306,3716.300766306082
462,38.33306797288702
463,0.17393481481341289
464,17.997154710000719
465,0.17390082374394265
2,1, 1, 1, 0,17,30.00,45.00,Monday
6,5.775
7,85.0
8,7.325
9,277.5
10,13.5
11,0.0
12,11.0
211,30.0
212,30.0
307,0.821559838664232
308,19.236295545697133
309,25.313858782151227
310,0.6104920319896938
209,30.016178969643009
210,32.14770602492181
306,3784.302730584131
462,38.46195595918746
463,0.17604870514790706
464,17.997160324864223
465,0.1759936297134442
2,1, 1, 1, 0,17,45.00,60.00,Monday
6,5.5
7,86.0
8,7.2
9,280.0
10,0.0
11,0.0
12,11.0
211,30.0
212,30.0
307,0.8068412685618263
308,18.72684065134564
309,25.220146271203264
310,0.6104920319896938
209,30.016260696927437
210,31.976909860823743
306,3853.95651558733
462,38.59397631850834
463,0.17818503788926233
464,17.997194520851733
465,0.17810934187834194
2,1, 1, 1, 0,18, 0.00,15.00,Monday
6,5.225
7,86.75
8,7.050000000000001
9,280.0
10,0.0
11,0.0
12,11.0
211,30.0
212,30.0
307,0.7929102153894375
308,18.253070359410829
309,25.13053146996133
310,0.6104920319896938
209,30.01638214058693
210,31.815412993744866
306,3921.425982647658
462,38.708694808064468
463,0.1803448883505789
464,17.99723661791671
465,0.18024486616788189
2,1, 1, 1, 0,18,15.00,30.00,Monday
6,4.95
7,87.5
8,6.9
9,280.0
10,0.0
11,0.0
12,11.0
211,30.0
212,30.0
307,0.7800457860082384
308,17.822881077252647
309,25.0484886374561
310,0.6104920319896938
209,30.016485199155029
210,31.65383093313665
306,3985.5737778573794
462,38.80041829711563
463,0.1825285560140156
464,17.997267372647653
465,0.18240689787667994
2,1, 1, 1, 0,18,30.00,45.00,Monday
6,4.675000000000001
7,88.25
8,6.749999999999999
9,280.0
10,0.0
11,0.0
12,11.0
211,30.0
212,30.0
307,0.7683453375516963
308,17.437729048432887
309,24.97490386576702
310,0.6104920319896938
209,30.01656686008466
210,31.493488009114409
306,4045.991126480157
462,38.86795122234092
463,0.18473528677208835
464,17.997301471226576
465,0.18459333334341589
2,1, 1, 1, 0,18,45.00,60.00,Monday
6,4.4
7,89.0
8,6.6
9,280.0
10,0.0
11,0.0
12,11.0
211,30.0
212,30.0
307,0.7575562450159504
308,17.08775256843839
309,24.907856820843049
310,0.6104920319896938
209,30.016635642139524
210,31.334450653034137
306,4103.525663089249
462,38.91677369645333
463,0.18696265798823365
464,17.99733682929097
465,0.18680314848897923
2,1, 1, 1, 0,19, 0.00,15.00,Monday
6,4.25
7,88.25
8,6.475
9,285.0
10,0.0
11,0.0
12,5.5
211,30.0
212,30.0
307,0.6814224579393504
308,14.760187921524704
309,24.362811560306186
310,0.6104920319896938
209,30.01143428870256
210,30.72024511055652
306,3856.2687380687776
462,47.63615295729496
463,0.1239615300021033
464,17.998951867940656
465,0.12396153000210326
2,1, 1, 1, 0,19,15.00,30.00,Monday
6,4.1
7,87.5
8,6.35
9,290.0
10,0.0
11,0.0
12,5.5
211,30.0
212,30.0
307,0.6494662307234573
308,13.85778426844145
309,24.180040906728619
310,0.6104920319896938
209,30.014002980008489
210,29.9050341826953
306,3977.712218273176
462,47.97210228386557
463,0.12646820023293257
464,17.995849342685266
465,0.12646820023293257
2,1, 1, 1, 0,19,30.00,45.00,Monday
6,3.9499999999999999
7,86.75
8,6.225
9,295.0
10,0.0
11,0.0
12,5.5
211,30.0
212,30.0
307,0.6261912329413064
308,13.22838576057488
309,24.066064321957496
310,0.6104920319896938
209,26.093593590259567
210,39.061535026556338
306,8979.948668313793
462,25.79909564431316
463,0.8113775429980049
464,17.999979122031893
465,0.8113775429980049
2,1, 1, 1, 0,19,45.00,60.00,Monday
6,3.8
7,86.0
8,6.1
9,300.0
10,0.0
11,0.0
12,5.5
211,30.0
212,30.0
307,-0.20138246232142949
308,5.841000915097936
309,22.264780747835954
310,0.6104920319896938
209,25.148095418963295
210,41.594511725899938
306,8725.770626451693
462,25.79801971410139
463,0.8113775429980052
464,18.000017476658287
465,0.8113775429980052
2,1, 1, 1, 0,20, 0.00,15.00,Monday
6,3.5249999999999996
7,86.75
8,5.975
9,300.0
10,0.0
11,0.0
12,1.1
211,30.0
212,30.0
307,-0.47797997856472276
308,9.771597571608865
309,21.251527650844488
310,0.6104920319896938
209,24.475930941578818
210,43.13765987632563
306,8563.82607275654
462,25.797386559088304
463,0.811377542998005
464,18.00002216229904
465,0.811377542998005
2,1, 1, 1, 0,20,15.00,30.00,Monday
6,3.25
7,87.5
8,5.85
9,300.0
10,0.0
11,0.0
12,1.1
211,30.0
212,30.0
307,-0.6718659669122173
308,14.48568996231667
309,20.570620773689105
310,0.6104920319896938
209,24.185256001808157
210,43.861217400413959
306,8451.275946720387
462,25.79742510853012
463,0.8113775429980051
464,17.999999281636009
465,0.8113775429980051
2,1, 1, 1, 0,20,30.00,45.00,Monday
6,2.9750000000000007
7,88.25
8,5.725
9,300.0
10,0.0
11,0.0
12,1.1
211,30.0
212,30.0
307,-0.7734719656525878