Program Version,EnergyPlus, Version 8.6.0-198c6a3cff, YMD=2021.06.29 21:44
1,5,Environment Title[],Latitude[deg],Longitude[deg],Time Zone[],Elevation[m]
2,6,Day of Simulation[],Month[],Day of Month[],DST Indicator[1=yes 0=no],Hour[],StartMinute[],EndMinute[],DayType
3,3,Cumulative Day of Simulation[],Month[],Day of Month[],DST Indicator[1=yes 0=no],DayType  ! When Daily Report Variables Requested
4,2,Cumulative Days of Simulation[],Month[]  ! When Monthly Report Variables Requested
5,1,Cumulative Days of Simulation[] ! When Run Period Report Variables Requested
6,1,Environment,Site Outdoor Air Drybulb Temperature [C] !TimeStep
7,1,Environment,Site Outdoor Air Relative Humidity [%] !TimeStep
8,1,Environment,Site Wind Speed [m/s] !TimeStep
9,1,Environment,Site Wind Direction [deg] !TimeStep
10,1,Environment,Site Diffuse Solar Radiation Rate per Area [W/m2] !TimeStep
11,1,Environment,Site Direct Solar Radiation Rate per Area [W/m2] !TimeStep
12,1,SPACE1-1,Zone People Occupant Count [] !TimeStep
209,1,SPACE1-1,Zone Air Temperature [C] !TimeStep
210,1,SPACE1-1,Zone Air Relative Humidity [%] !TimeStep
211,1,SPACE1-1,Zone Thermostat Heating Setpoint Temperature [C] !TimeStep
212,1,SPACE1-1,Zone Thermostat Cooling Setpoint Temperature [C] !TimeStep
306,1,Whole Building,Facility Total HVAC Electric Demand Power [W] !TimeStep
307,1,SPACE1-1 PEOPLE 1,Zone Thermal Comfort Fanger Model PMV [] !TimeStep
308,1,SPACE1-1 PEOPLE 1,Zone Thermal Comfort Fanger Model PPD [%] !TimeStep
309,1,SPACE1-1 PEOPLE 1,Zone Thermal Comfort Mean Radiant Temperature [C] !TimeStep
310,1,SPACE1-1 PEOPLE 1,Zone Thermal Comfort Clothing Value [clo] !TimeStep
462,1,SPACE1-1 IN NODE,System Node Temperature [C] !TimeStep
463,1,SPACE1-1 IN NODE,System Node Mass Flow Rate [kg/s] !TimeStep
464,1,VAV SYS 1 OUTLET NODE,System Node Temperature [C] !TimeStep
465,1,VAV SYS 1 OUTLET NODE,System Node Mass Flow Rate [kg/s] !TimeStep
End of Data Dictionary
1,Pittsburgh Allegheny Co Ap PA USA TMY3 WMO#=725205,  40.35, -79.92,  -5.00, 380.00
2,1, 1, 1, 0, 1, 0.00,15.00,Monday
6,1.8
7,95.25
8,4.1
9,265.0
10,0.0
11,0.0
12,0.0
211,20.99996028578502
212,20.99996028578502
307,-1.400056727049901
308,45.514830011685138
309,16.573519774980075
310,0.7499999951999999
209,20.99993364099087
210,41.03839618580687
306,5862.242558389342
462,23.552911372248674
463,0.8113775429980051
464,18.00001125786368
465,0.8113775429980051
2,1, 1, 1, 0, 1,15.00,30.00,Monday
6,3.6
7,95.5
8,4.1
9,240.0
10,0.0
11,0.0
12,0.0
211,20.99993364099087
212,20.99993364099087
307,-1.3852589456721658
308,44.727776039089139
309,16.71381241616311
310,0.7499999951999999
209,20.99991681491346
210,40.924422751630398
306,5775.494813842012
462,23.462430158929789
463,0.8113775429980051
464,18.000011219188804
465,0.8113775429980051
2,1, 1, 1, 0, 1,30.00,45.00,Monday
6,5.4
7,95.75
8,4.1
9,215.0
10,0.0
11,0.0
12,0.0
211,20.99991681491346
212,20.99991681491346
307,-1.3609932230218452
308,43.44475740765739
309,16.923457162646334
310,0.7499999951999999
209,21.00034288664144
210,40.40976365158671
306,2547.725458837323
462,32.15800745889294
463,0.1717122488105306
464,17.964905961501857
465,0.171712248810531
2,1, 1, 1, 0, 1,45.00,60.00,Monday
6,7.2
7,96.0
8,4.1
9,190.0
10,0.0
11,0.0
12,0.0
211,21.00034288664144
212,21.00034288664144
307,-1.3353227819204006
308,42.098864230553058
309,17.173587133879879
310,0.7499999951999999
209,21.000204989736518
210,40.121472342598057
306,2398.083433993419
462,31.612879462062915
463,0.167112795925551
464,18.03265286306025
465,0.167112795925551
2,1, 1, 1, 0, 2, 0.00,15.00,Monday
6,7.2
7,96.0
8,4.35
9,197.5
10,0.0
11,0.0
12,0.0
211,21.00020498973652
212,21.00020498973652
307,-1.3133101122376956
308,40.95505580653369
309,17.376201593695066
310,0.7499999951999999
209,21.000246615984936
210,40.05776902027214
306,2339.977398349904
462,30.63360124440798
463,0.17511542802108019
464,17.988590385871878
465,0.17511542802108008
2,1, 1, 1, 0, 2,15.00,30.00,Monday
6,7.2
7,96.0
8,4.6
9,205.0
10,0.0
11,0.0
12,0.0
211,21.00024661598493
212,21.00024661598493
307,-1.2949644464645723
308,40.00967127019171
309,17.53903327360998
310,0.7499999951999999
209,21.00032302328393
210,40.00558988868428
306,2272.6157930484565
462,30.127220069983339
463,0.17722526639789777
464,17.997168248899575
465,0.17722526639789777
2,1, 1, 1, 0, 2,30.00,45.00,Monday
6,7.2
7,96.0
8,4.85
9,212.5
10,0.0
11,0.0
12,0.0
211,21.00032302328393
212,21.00032302328393
307,-1.282048890998287
308,39.348667158934947
309,17.653826376699969
310,0.7499999951999999
209,21.000375647074074
210,39.95428408222321
306,2227.7535596443263
462,29.77798924510669
463,0.17882507293757483
464,17.997892473441046
465,0.17882507293757483
2,1, 1, 1, 0, 2,45.00,60.00,Monday
6,7.2
7,96.0
8,5.1
9,220.0
10,0.0
11,0.0
12,0.0
211,21.00037564707407
212,21.00037564707407
307,-1.273610509333671
308,38.91891774604469
309,17.729635342574974
310,0.7499999951999999
209,21.000414042903317
210,39.90978843371668
306,2200.5052183705193
462,29.543116303103788
463,0.18019142526088217
464,17.99823066268919
465,0.18019142526088217
2,1, 1, 1, 0, 3, 0.00,15.00,Monday
6,7.2
7,96.0
8,4.975
9,220.0
10,0.0
11,0.0
12,0.0
211,21.00041404290332
212,21.00041404290332
307,-1.2665022363119019
308,38.558242971729537
309,17.7807561322321
310,0.7499999951999999
209,21.00045352713138
210,39.86762939591678
306,2176.076637428053
462,29.38773514803571
463,0.18058559690042767
464,17.999792805453767
465,0.18035515610917775
2,1, 1, 1, 0, 3,15.00,30.00,Monday
6,7.2
7,96.0
8,4.85
9,220.0
10,0.0
11,0.0
12,0.0
211,21.00045352713138
212,21.00045352713138
307,-1.2626468117980514
308,38.36313807628383
309,17.81596303709444
310,0.7499999951999999
209,21.000492876589648
210,39.8261321303007
306,2157.074765346494
462,29.30120477302981
463,0.1803481667094188
464,17.999682712532694
465,0.18060484878086786
2,1, 1, 1, 0, 3,30.00,45.00,Monday
6,7.2
7,96.0
8,4.725
9,220.0
10,0.0
11,0.0
12,0.0
211,21.00049287658965
212,21.00049287658965
307,-1.2600792876369092
308,38.233413084123679
309,17.840065130647156
310,0.7499999951999999
209,21.00052854473668
210,39.78725194372545
306,2142.565482077793
462,29.250421183683075
463,0.1799308768070778
464,18.000294019094075
465,0.1803775598751508
2,1, 1, 1, 0, 3,45.00,60.00,Monday
6,7.2
7,96.0
8,4.6
9,220.0
10,0.0
11,0.0
12,0.0
211,21.00052854473668
212,21.00052854473668
307,-1.2582135351373729
308,38.139249079510708
309,17.85800847888112
310,0.7499999951999999
209,21.000561385335666
210,39.75145207243544
306,2130.41062516215
462,29.222366646890835
463,0.179343617359675
464,18.001337779819584
465,0.179343617359675
2,1, 1, 1, 0, 4, 0.00,15.00,Monday
6,7.325
7,95.25
8,4.725
9,225.0
10,0.0
11,0.0
12,0.0
211,21.00056138533566
212,21.00056138533566
307,-1.2562686896957543
308,38.04118675367772
309,17.875958247572844
310,0.7499999951999999
209,21.00059151767704
210,39.72875975184865
306,2114.9004371498518
462,29.299892163826724
463,0.17682135705133446
464,18.003325315993174
465,0.17682135705133446
2,1, 1, 1, 0, 4,15.00,30.00,Monday
6,7.45
7,94.5
8,4.85
9,230.0
10,0.0
11,0.0
12,0.0
211,21.00059151767704
212,21.00059151767704
307,-1.2542261537839017
308,37.93830196458064
309,17.894600765205799
310,0.7499999951999999
209,21.00061937810621
210,39.708546623519847
306,2099.8257412550847
462,29.370027145280465
463,0.17445826037748894
464,18.00280790467594
465,0.1747463262638181
2,1, 1, 1, 0, 4,30.00,45.00,Monday
6,7.575
7,93.75
8,4.975
9,235.0
10,0.0
11,0.0
12,0.0
211,21.00061937810621
212,21.00061937810621
307,-1.2519945154262158
308,37.82601345193961
309,17.91474023396791
310,0.7499999951999999
209,21.000644997008128
210,39.690611599312209
306,2084.4832313998463
462,29.430362796892834
463,0.1722503006521878
464,18.003200231012035
465,0.17243966716779078
2,1, 1, 1, 0, 4,45.00,60.00,Monday
6,7.7
7,93.0
8,5.1
9,240.0
10,0.0
11,0.0
12,0.0
211,21.00064499700813
212,21.00064499700813
307,-1.2495935174282618
308,37.705345915840037
309,17.936216416974074
310,0.7499999951999999
209,21.000668629578038
210,39.67473849132314
306,2068.5160355557896
462,29.489070465453748
463,0.17003084986574369
464,18.00318073692072
465,0.17020656291179854
2,1, 1, 1, 0, 5, 0.00,15.00,Monday
6,7.7
7,93.0
8,5.1
9,240.0
10,0.0
11,0.0
12,0.0
211,21.00066862957804
212,21.00066862957804
307,-1.2477104911586652
308,37.61081418910593
309,17.95365859138752
310,0.7499999951999999
209,21.000690890867767
210,39.65029112390105
306,2059.4922071107126
462,29.463071661806127
463,0.1696212954088851
464,18.000648554550037
465,0.16975927288235999
2,1, 1, 1, 0, 5,15.00,30.00,Monday
6,7.7
7,93.0
8,5.1
9,240.0
10,0.0
11,0.0
12,0.0
211,21.00069089086777
212,21.00069089086777
307,-1.2462515843050142
308,37.53763726175744
309,17.967380304997439
310,0.7499999951999999
209,21.000711748050507
210,39.627312200994399
306,2051.6728826813237
462,29.449153425954735
463,0.16916483874174197
464,18.000281989137329
465,0.1695661275192343
2,1, 1, 1, 0, 5,30.00,45.00,Monday
6,7.7
7,93.0
8,5.1
9,240.0
10,0.0
11,0.0
12,0.0
211,21.00071174805051
212,21.00071174805051
307,-1.2452180307910546
308,37.485829007752567
309,17.977379840644468
310,0.7499999951999999
209,21.00073124313245
210,39.605771321006837
306,2045.376362243544
462,29.44653054262072
463,0.16867937663864064
464,18.00062088136724
465,0.16914098862635658
2,1, 1, 1, 0, 5,45.00,60.00,Monday
6,7.7
7,93.0
8,5.1
9,240.0
10,0.0
11,0.0
12,0.0
211,21.00073124313245
212,21.00073124313245
307,-1.2445584512548527
308,37.4527812547043
309,17.98410049806668
310,0.7499999951999999
209,21.00074950232837
210,39.58559124110027
306,2040.6634166988533
462,29.45297046021634
463,0.1681907642847359
464,18.00075410874253
465,0.16862720015022143
2,1, 1, 1, 0, 6, 0.00,15.00,Monday
6,7.7
7,93.0
8,5.225
9,240.0
10,0.0
11,0.0
12,0.0
211,21.00074950232837
212,21.00074950232837
307,-1.24415088346867
308,37.432366045390718
309,17.988592423539438
310,0.7499999951999999
209,21.000766636912574
210,39.56660477996114
306,2038.9107206103854
462,29.473799434961359
463,0.16773882449322473
464,18.00073736384185
465,0.1681277951527172
2,1, 1, 1, 0, 6,15.00,30.00,Monday
6,7.7
7,93.0
8,5.35
9,240.0
10,0.0
11,0.0
12,0.0
211,21.00076663691257
212,21.00076663691257
307,-1.2439686237049089
308,37.42323799662842
309,17.991093219153965
310,0.7499999951999999
209,21.000782668277837
210,39.54874051492768
306,2038.1770129215975
462,29.498900237319086
463,0.16731098266532397
464,18.00066849900639
465,0.16767761212394004
2,1, 1, 1, 0, 6,30.00,45.00,Monday
6,7.7
7,93.0
8,5.475
9,240.0
10,0.0
11,0.0
12,0.0
211,21.00078266827784
212,21.00078266827784
307,-1.2439550117186463
308,37.422556307384628
309,17.992092480113216
310,0.7499999951999999
209,21.000797641104808
210,39.53196075162208
306,2038.2534849096994
462,29.52642319352759
463,0.16691808051818675
464,18.000629647540028
465,0.16725579249608794
2,1, 1, 1, 0, 6,45.00,60.00,Monday
6,7.7
7,93.0
8,5.6
9,240.0
10,0.0
11,0.0
12,0.0
211,21.00079764110481
212,21.00079764110481
307,-1.2440585389739634
308,37.42774108144464
309,17.992033790232207
310,0.7499999951999999
209,21.000811630554169
210,39.51621104208475
306,2038.9487165697835
462,29.5550051069648
463,0.16656326993577509
464,18.000584146209744
465,0.16686636198149297
2,1, 1, 1, 0, 7, 0.00,15.00,Monday
6,7.7
7,93.0
8,5.725
9,240.0
10,0.0
11,0.0
12,0.0
211,21.00081163055417
212,21.00081163055417
307,-1.6227065824463767
308,57.5798517320232
309,17.991247675385364
310,0.6104920319896938
209,21.000824702207696
210,39.501433179506708
306,2040.1142420344663
462,29.583530894768687
463,0.1662505137755423
464,18.000566561206456
465,0.16651930823296594
2,1, 1, 1, 0, 7,15.00,30.00,Monday
6,7.7
7,93.0
8,5.85
9,240.0
10,0.0
11,0.0
12,0.0
211,21.00082470220769
212,21.00082470220769
307,-1.6229550842542505
308,57.59334731220496
309,17.989964546752789
310,0.6104920319896938
209,21.000836908516676
210,39.48756878373232
306,2041.6266192259695
462,29.6117934573456
463,0.16597128228604469
464,18.000512016909246
465,0.166207933219441
2,1, 1, 1, 0, 7,30.00,45.00,Monday
6,7.7
7,93.0
8,5.975
9,240.0
10,0.0
11,0.0
12,0.0
211,21.00083690851667
212,21.00083690851667
307,-1.6232416999567366
308,57.608912303528509
309,17.988341085429139
310,0.6104920319896938
209,21.00084829887648
210,39.47457134759043
306,2043.4110448363556
462,29.639265377824793
463,0.1657271333481833
464,18.00045575698945
465,0.1659330631943244
2,1, 1, 1, 0, 7,45.00,60.00,Monday
6,7.7
7,93.0
8,6.1
9,240.0
10,0.0
11,0.0
12,0.0
211,21.00084829887648
212,21.00084829887648
307,-1.6235393979042748
308,57.62507859369841
309,17.986591597898543
310,0.6104920319896938
209,21.000858923274337
210,39.46239274797949
306,2045.3784019798536
462,29.66561002595439
463,0.1655152307257058
464,18.000401094197274
465,0.1656933785698324
2,1, 1, 1, 0, 8, 0.00,15.00,Monday
6,7.7
7,93.0
8,6.1
9,242.5
10,0.0
11,0.0
12,0.0
211,21.00085892327434
212,21.00085892327434
307,-1.6237440105903725
308,57.63618963281826
309,17.98506670974952
310,0.6104920319896938
209,21.000869863647578
210,39.46041900827105
306,2045.5850826277208
462,29.67873746765275
463,0.16534618069737476
464,18.000353194518575
465,0.16548551951062369
2,1, 1, 1, 0, 8,15.00,30.00,Monday
6,7.7
7,93.0
8,6.1
9,245.0
10,0.0
11,0.0
12,0.0
211,21.00086986364758
212,21.00086986364758
307,-1.6238932698740792
308,57.64429466418917
309,17.983972316141175
310,0.6104920319896938
209,21.000880746336315
210,39.45844236474906
306,2045.6534128450808
462,29.689653703130174
463,0.1651970744062513
464,18.00028833029704
465,0.16532035228777593
2,1, 1, 1, 0, 8,30.00,45.00,Monday
6,7.7
7,93.0
8,6.1
9,247.5
10,0.0
11,0.0
12,0.0
211,21.00088074633631
212,21.00088074633631
307,-1.6239917086714913
308,57.649639981496878
309,17.983277034487917
310,0.6104920319896938
209,21.000891420518099
210,39.4565986306181
306,2045.590994110081
462,29.698471758353585
463,0.16506752224770636
464,18.000255914824565
465,0.16517647963396188
2,1, 1, 1, 0, 8,45.00,60.00,Monday
6,7.7
7,93.0
8,6.1
9,250.0
10,10.5
11,0.0
12,0.0
211,21.0008914205181
212,21.0008914205181
307,-1.623050636776381
308,57.59853645647745
309,17.99073307852755
310,0.6104920319896938
209,21.000901954448108
210,39.45490095094477
306,2041.8348243250703
462,29.684503312377264
463,0.16495516867542085
464,18.000230026224185
465,0.16504953865911277
2,1, 1, 1, 0, 9, 0.00,15.00,Monday
6,7.7
7,93.0
8,6.374999999999999
9,250.0
10,15.75
11,0.0
12,11.0
211,21.00090195444811
212,21.00090195444811
307,-1.4724815190061114
308,49.40777746021353
309,19.150023166646088
310,0.6104920319896938
209,21.001039198264214
210,40.8988371361124
306,1473.0720426997632
462,21.070434950586887
463,0.4058043400117317
464,17.957489015863929
465,0.40580434001173179
2,1, 1, 1, 0, 9,15.00,30.00,Monday
6,7.7
7,93.0
8,6.65
9,250.0
10,21.0
11,0.0
12,11.0
211,21.00103919826421
212,21.00103919826421
307,-1.4225178190303856
308,46.7154847210493
309,19.46838404507893
310,0.6104920319896938
209,21.001407335548586
210,42.36281308029792
306,1196.426453104385
462,20.696345560378377
463,0.37760762511555559
464,18.005564724109577
465,0.37760762511555559
2,1, 1, 1, 0, 9,30.00,45.00,Monday
6,7.7
7,93.0
8,6.925000000000001
9,250.0
10,25.25
11,0.0
12,11.0
211,21.00140733554858
212,21.00140733554858
307,-1.389944127019196
308,44.976606477848417
309,19.65142838072142
310,0.6104920319896938
209,21.001748519540386
210,43.24655197270249
306,1066.7786113714005
462,20.46643377533938
463,0.36387485316429088
464,17.98761119127299
465,0.36387485316429166
2,1, 1, 1, 0, 9,45.00,60.00,Monday
6,7.7
7,93.0
8,7.2
9,250.0
10,29.5
11,0.0
12,11.0
211,21.00174851954039
212,21.00174851954039
307,-1.36679226936249
308,43.75046670175946
309,19.78830149483432
310,0.6104920319896938
209,21.002166244061514
210,43.855629105856909
306,1013.3941950990147
462,20.351794895431888
463,0.3622339706285618
464,17.99845322628755
465,0.3622339706285618
2,1, 1, 1, 0,10, 0.00,15.00,Monday
6,7.7
7,93.0
8,7.050000000000001
9,252.5
10,33.75
11,0.0
12,11.0
211,21.00216624406151
212,21.00216624406151
307,-1.3226184505803505
308,41.43751112451244
309,20.097751107339034
310,0.6104920319896938
209,21.002354797484768
210,44.443231764454917
306,522.4155031197614
462,19.068195270367345
463,0.3573060999090658
464,17.995504400815148
465,0.3573060999090658
2,1, 1, 1, 0,10,15.00,30.00,Monday
6,7.7
7,93.0
8,6.9
9,255.0
10,38.0
11,0.0
12,11.0
211,21.00235479748477
212,21.00235479748477
307,-1.3084765770989364
308,40.70525860252144
309,20.178891438795909
310,0.6104920319896938
209,21.002487556528583
210,44.99992447054104
306,418.0410755222825
462,18.814521964183503
463,0.35059398088030166
464,17.993906773186784
465,0.35059398088030166
2,1, 1, 1, 0,10,30.00,45.00,Monday
6,7.7
7,93.0
8,6.749999999999999
9,257.5
10,43.5
11,0.0
12,11.0
211,21.00248755652858
212,21.00248755652858
307,-1.2949967152834535
308,40.01132755986981
309,20.256387213372159
310,0.6104920319896938
209,21.002606656978693
210,45.487296309350018
306,365.27371619817236
462,18.684282041732176
463,0.3467145738248961
464,17.99646114159622
465,0.3467145738248961
2,1, 1, 1, 0,10,45.00,60.00,Monday
6,7.7
7,93.0
8,6.6
9,260.0
10,49.0
11,0.0
12,11.0
211,21.00260665697869
212,21.00260665697869
307,-1.2838274304456306
308,39.43946042168419
309,20.319370655604684
310,0.6104920319896938
209,21.00271064163613
210,45.92102959777745
306,322.50392255108496
462,18.57589246570602
463,0.34364499877300277
464,17.997192530905889
465,0.34364499877300277
2,1, 1, 1, 0,11, 0.00,15.00,Monday
6,7.7
7,93.0
8,6.475
9,260.0
10,54.5
11,0.0
12,11.0
211,21.00271064163613
212,21.00271064163613
307,-1.2677064097772036
308,38.61925586447728
309,20.422928626112154
310,0.6104920319896938
209,21.0027880314889
210,46.302116055814789
306,262.4228838800609
462,18.41575630124398
463,0.340911404377913
464,17.997499667189545
465,0.340911404377913
2,1, 1, 1, 0,11,15.00,30.00,Monday
6,7.7
7,93.0
8,6.35
9,260.0
10,60.0
11,0.0
12,11.0
211,21.0027880314889
212,21.0027880314889
307,-1.2573235661704932
308,38.09436350136452
309,20.484659003224136
310,0.6104920319896938
209,21.00284583076116
210,46.64429467804804
306,217.69592584204936
462,18.296704988500016
463,0.33674185667348385
464,17.996205968348858
465,0.33674185667348358
2,1, 1, 1, 0,11,30.00,45.00,Monday
6,7.7
7,93.0
8,6.225
9,260.0
10,63.75
11,0.0
12,11.0
211,21.00284583076116
212,21.00284583076116
307,-1.2485728830589545
308,37.65409662863909
309,20.535725132710387
310,0.6104920319896938
209,21.00288643600921
210,46.94853340154569
306,182.24059746967849
462,18.2029700047341
463,0.3342308747770793
464,17.99770708651338
465,0.33423087477707816
2,1, 1, 1, 0,11,45.00,60.00,Monday
6,7.7
7,93.0
8,6.1
9,260.0
10,67.5
11,0.0
12,11.0
211,21.00288643600921
212,21.00288643600921
307,-1.2410316072114656
308,37.27626455304967
309,20.57930627679901
310,0.6104920319896938
209,21.002911592971317
210,47.219644792917247
306,152.6091145517542
462,18.122476494940178
463,0.332252805680631
464,17.99819161725891
465,0.3322528056806304
2,1, 1, 1, 0,12, 0.00,15.00,Monday
6,7.7
7,93.0
8,6.1
9,257.5
10,71.25
11,0.0
12,8.8
211,21.00291159297132
212,21.00291159297132
307,-1.2463955845909452
308,37.544857675536579
309,20.52639024653854
310,0.6104920319896938
209,21.002950569516469
210,47.33867242689874
306,144.05109800878373
462,18.166962628396939
463,0.28549513679776797
464,17.957442119384444
465,0.28549513679776836
2,1, 1, 1, 0,12,15.00,30.00,Monday
6,7.7
7,93.0
8,6.1
9,255.0
10,75.0
11,0.0
12,8.8
211,21.00295056951647
212,21.00295056951647
307,-1.2444046831719012
308,37.44507844917874
309,20.53612708317205
310,0.6104920319896938
209,21.002981665823964
210,47.447616247645118
306,135.03430462490312
462,18.17547929727369
463,0.28781087914010219
464,18.002104988026486
465,0.2878108791401021
2,1, 1, 1, 0,12,30.00,45.00,Monday
6,7.7
7,93.0
8,6.1
9,252.5
10,80.25
11,0.0
12,8.8
211,21.00298166582396
212,21.00298166582396
307,-1.2412941548953698
308,37.28939367392735
309,20.55482766279187
310,0.6104920319896938
209,21.003006037691759
210,47.5654765098484
306,122.85725553904072
462,18.13444369836741
463,0.2865436062291858
464,17.998840110501346
465,0.286543606229186
2,1, 1, 1, 0,12,45.00,60.00,Monday
6,7.7
7,93.0
8,6.1
9,250.0
10,85.5
11,0.0
12,8.8
211,21.003006037691763
212,21.003006037691763
307,-1.237451303900554
308,37.09740740742599
309,20.578694138844875
310,0.6104920319896938
209,21.003022128429437
210,47.66559745547451
306,107.92619108761801
462,18.08679490211061
463,0.2854734605345874
464,17.999022845842846
465,0.2854734605345872
2,1, 1, 1, 0,13, 0.00,15.00,Monday
6,7.8500000000000009
7,91.25
8,5.975
9,252.5
10,90.75
11,0.0
12,4.4
211,21.00302212842944
212,21.00302212842944
307,-1.2631623186081269
308,38.38920407262795
309,20.378791768886218
310,0.6104920319896938
209,21.003091415245
210,47.39522710098083
306,138.80559362678208
462,18.41414525662133
463,0.19268002345263975
464,17.934808235969677
465,0.19268002345263975
2,1, 1, 1, 0,13,15.00,30.00,Monday
6,8.0
7,89.5
8,5.85
9,255.0
10,96.0
11,0.0
12,4.4
211,21.003091415245
212,21.003091415245
307,-1.2665346787060255
308,38.55988629000935
309,20.36518380344428
310,0.6104920319896938
209,21.003151658152317
210,47.08420593939842
306,137.14216448249767
462,18.461817871553316
463,0.19483188963340979
464,17.997616652831309
465,0.1948318896334098
2,1, 1, 1, 0,13,30.00,45.00,Monday
6,8.15
7,87.75
8,5.725
9,257.5
10,93.75
11,0.0
12,4.4
211,21.00315165815232
212,21.00315165815232
307,-1.2665874465411045
308,38.56255921688793
309,20.378666119444419
310,0.6104920319896938
209,21.00320093343009
210,46.82942006779368
306,121.84715400970284
462,18.388736684499265
463,0.19281668012469628
464,18.002262374594179
465,0.19281668012469628
2,1, 1, 1, 0,13,45.00,60.00,Monday
6,8.3
7,86.0
8,5.6
9,260.0
10,91.5
11,0.0
12,4.4
211,21.00320093343009
212,21.00320093343009
307,-1.2649495333232264
308,38.479623655925497
309,20.40249565502661
310,0.6104920319896938
209,21.003238189673686
210,46.56699086129254
306,99.14084997412442
462,18.280169866927868
463,0.1901034677592261
464,18.00312066665828
465,0.1901034677592261
2,1, 1, 1, 0,14, 0.00,15.00,Monday
6,8.15
7,86.0
8,5.85
9,260.0
10,89.25
11,0.0
12,8.8
211,21.00323818967368
212,21.00323818967368
307,-1.2407659247228174
308,37.262980519673678
309,20.597959350107833
310,0.6104920319896938
209,21.006499613257558
210,46.57873963483852
306,83.12946077081796
462,18.068204063795759
463,0.2877087119357638
464,18.064356481885409
465,0.2877087119357638
2,1, 1, 1, 0,14,15.00,30.00,Monday
6,8.0
7,86.0
8,6.1
9,260.0
10,87.0
11,0.0
12,8.8
211,21.00649961325756
212,21.00649961325756
307,-1.2348820742624065
308,36.969269051729629
309,20.637866553929255
310,0.6104920319896938
209,21.010220094250589
210,46.51890192594099
306,81.682418917089
462,18.00127051011506
463,0.2850981915915981
464,17.997649214530538
465,0.2850981915915981
2,1, 1, 1, 0,14,30.00,45.00,Monday
6,7.8500000000000009
7,86.0
8,6.35
9,260.0
10,85.0
11,0.0
12,8.8
211,21.01022009425059
212,21.01022009425059
307,-1.2339016591420478
308,36.92041805917948
309,20.643171996484985
310,0.6104920319896938
209,21.014002772446717
210,46.383352989745798
306,80.7560651886629
462,18.002060395360684
463,0.2834152184992239
464,17.99847902423252
465,0.2834152184992239
2,1, 1, 1, 0,14,45.00,60.00,Monday
6,7.7
7,86.0
8,6.6
9,260.0
10,83.0
11,0.0
12,8.8
211,21.01400277244672
212,21.01400277244672
307,-1.235954508057556
308,37.02273446937283
309,20.628774313996997
310,0.6104920319896938
209,21.014007244842725
210,46.25698859119965
306,86.16414439107321
462,18.020588375034295
463,0.281718722536855
464,17.998465762969443
465,0.281718722536855
2,1, 1, 1, 0,15, 0.00,15.00,Monday
6,7.575
7,86.0
8,6.749999999999999
9,262.5
10,81.0
11,0.0
12,11.0
211,21.01400724484272
212,21.01400724484272
307,-1.2247823529008859
308,36.46727356153703
309,20.718641519833935
310,0.6104920319896938
209,21.014039131080879
210,46.24602935963631
306,154.02051281294295
462,18.179742943792069
463,0.3283067286011457
464,18.042462572772807
465,0.32830672860114498
2,1, 1, 1, 0,15,15.00,30.00,Monday
6,7.45
7,86.0
8,6.9
9,265.0
10,79.0
11,0.0
12,11.0
211,21.01403913108088
212,21.01403913108088
307,-1.2254001774588153
308,36.497902348333457
309,20.714406775841014
310,0.6104920319896938
209,21.01408182946417
210,46.17679100767606
306,163.7808228138003
462,18.170159567140364
463,0.3254170015048884
464,17.997411704285946
465,0.3254170015048883
2,1, 1, 1, 0,15,30.00,45.00,Monday
6,7.325
7,86.0
8,7.050000000000001
9,267.5
10,71.75
11,0.0
12,11.0
211,21.01408182946417
212,21.01408182946417
307,-1.229051454189438
308,36.679127667541397
309,20.689764806162139
310,0.6104920319896938
209,21.01413949696085
210,46.05885850076231
306,185.2837107398557
462,18.232966408901434
463,0.3274913908631566
464,18.00190257902544
465,0.3274913908631565
2,1, 1, 1, 0,15,45.00,60.00,Monday
6,7.2
7,86.0
8,7.2
9,270.0
10,64.5
11,0.0
12,11.0
211,21.01413949696085
212,21.01413949696085
307,-1.2349746759655465
308,36.97388443153427
309,20.650043461326719
310,0.6104920319896938
209,21.014215857994829
210,45.92762450471143
306,213.26001468044428
462,18.317882511331406
463,0.329820912275645
464,18.002134716615278
465,0.329820912275645
2,1, 1, 1, 0,16, 0.00,15.00,Monday
6,7.050000000000001
7,85.0
8,7.325
9,270.0
10,57.25
11,0.0
12,11.0
211,21.01421585799483
212,21.01421585799483
307,-1.2459388027950478
308,37.5219557348663
309,20.57313860101088
310,0.6104920319896938
209,21.01439132648295
210,45.69948844104033
306,342.39425693618485
462,18.67463104682156
463,0.3328946712512431
464,18.002958809673769
465,0.33304327979929979
2,1, 1, 1, 0,16,15.00,30.00,Monday
6,6.9
7,84.0
8,7.45
9,270.0
10,50.0
11,0.0
12,11.0
211,21.01439132648295
212,21.01439132648295
307,-1.255983230069735
308,38.02680146603251
309,20.50685518259959
310,0.6104920319896938
209,21.014603567388883
210,45.40148527406424
306,389.59693862981569
462,18.79761674895367
463,0.3361930197488863
464,18.002753635620903
465,0.3360382054319385
2,1, 1, 1, 0,16,30.00,45.00,Monday
6,6.749999999999999
7,83.0
8,7.575
9,270.0
10,42.0
11,0.0
12,11.0
211,21.01460356738888
212,21.01460356738888
307,-1.266845830045641
308,38.57564848849886
309,20.43739823542622
310,0.6104920319896938
209,21.014852737057195
210,45.05793635525126
306,439.0148871057206
462,18.923842552960897
463,0.339694247434977
464,18.003045645418508
465,0.33935134804848568
2,1, 1, 1, 0,16,45.00,60.00,Monday
6,6.6
7,82.0
8,7.7
9,270.0
10,34.0
11,0.0
12,11.0
211,21.01485273705719
212,21.01485273705719
307,-1.2783273166786969
308,39.15892535365099
309,20.36518463264913
310,0.6104920319896938
209,21.015140886569534
210,44.67249972268525
306,490.7443572016164
462,19.052125615657528
463,0.34334416160620676
464,18.003664206339879
465,0.34334416160620676
2,1, 1, 1, 0,17, 0.00,15.00,Monday
6,6.324999999999999
7,83.0
8,7.575
9,272.5
10,26.0
11,0.0
12,11.0
211,21.01514088656953
212,21.01514088656953
307,-1.2975336923742309
308,40.14161898313491
309,20.235926026977944
310,0.6104920319896938
209,21.01558354983812
210,44.330128285513698
306,727.0522796827736
462,19.672558489997429
463,0.3500389082467351
464,18.006087512546775
465,0.3500389082467351
2,1, 1, 1, 0,17,15.00,30.00,Monday
6,6.05
7,84.0
8,7.45
9,275.0
10,18.0
11,0.0
12,11.0
211,21.01558354983812
212,21.01558354983812
307,-1.3121010525451642
308,40.892524399195668
309,20.1397426668901
310,0.6104920319896938
209,21.016062370659385
210,44.01497299680334
306,800.0271233902789
462,19.824282219375136
463,0.35699620118073069
464,18.006318040915386
465,0.35699620118073069
2,1, 1, 1, 0,17,30.00,45.00,Monday
6,5.775
7,85.0
8,7.325
9,277.5
10,13.5
11,0.0
12,11.0
211,21.01606237065938
212,21.01606237065938
307,-1.3258848785749935
308,41.60723964825862
309,20.048176322991087
310,0.6104920319896938
209,21.016574927722979
210,43.7109084100626
306,871.2765085229796
462,19.96476145950287
463,0.364070297225485
464,18.00641109038378
465,0.364070297225485
2,1, 1, 1, 0,17,45.00,60.00,Monday
6,5.5
7,86.0
8,7.2
9,280.0
10,0.0
11,0.0
12,11.0
211,21.01657492772298
212,21.01657492772298
307,-1.3400942860439518
308,42.34808721902249
309,19.952734381200146
310,0.6104920319896938
209,21.01711787337234
210,43.42148397617257
306,944.6093236617266
462,20.10436080061419
463,0.3712419099433832
464,18.006485752746298
465,0.37124190994338326
2,1, 1, 1, 0,18, 0.00,15.00,Monday
6,5.225
7,86.75
8,7.050000000000001
9,280.0
10,0.0
11,0.0
12,11.0
211,21.01711787337234
212,21.01711787337234
307,-1.3535998867788366
308,43.05586944377917
309,19.861384005278525
310,0.6104920319896938
209,21.017693751634384
210,43.14350729074512
306,1016.361487986979
462,20.233390428793244
463,0.3785505859348129
464,18.006599554025138
465,0.3785505859348129
2,1, 1, 1, 0,18,15.00,30.00,Monday
6,4.95
7,87.5
8,6.9
9,280.0
10,0.0
11,0.0
12,11.0
211,21.01769375163438
212,21.01769375163438
307,-1.366124781307547
308,43.71524871356561
309,19.777402247829614
310,0.6104920319896938
209,21.018296958743194
210,42.86640577019558
306,1085.0164056756237
462,20.348739168939149
463,0.3859664068700731
464,18.006683363768269
465,0.3859664068700731
2,1, 1, 1, 0,18,30.00,45.00,Monday
6,4.675000000000001
7,88.25
8,6.749999999999999
9,280.0
10,0.0
11,0.0
12,11.0
211,21.01829695874319
212,21.01829695874319
307,-1.3775434655701178
308,44.318765995031288
309,19.70174851891022
310,0.6104920319896938
209,21.018923345602969
210,42.59210111139337
306,1150.0724113858312
462,20.449956320117708
463,0.3934764080525948
464,18.006755729350219
465,0.3934764080525948
2,1, 1, 1, 0,18,45.00,60.00,Monday
6,4.4
7,89.0
8,6.6
9,280.0
10,0.0
11,0.0
12,11.0
211,21.01892334560297
212,21.01892334560297
307,-1.3880297419013879
308,44.8748919285777
309,19.633027826867857
310,0.6104920319896938
209,21.019570337290806
210,42.31959583586689
306,1212.1504227191688
462,20.53943709300868
463,0.40105706241477337
464,18.00680675367708
465,0.40105706241477337
2,1, 1, 1, 0,19, 0.00,15.00,Monday
6,4.25
7,88.25
8,6.475
9,285.0
10,0.0
11,0.0
12,5.5
211,21.0195703372908
212,21.0195703372908
307,-1.4856418715678104
308,50.12081362579182
309,18.89442736678203
310,0.6104920319896938
209,21.02067337880921
210,41.724953446178719
306,1426.326532396481
462,22.7544907431636
463,0.2676536586659878
464,17.87923680725032
465,0.2676536586659878
2,1, 1, 1, 0,19,15.00,30.00,Monday
6,4.1
7,87.5